       N       E                     dE             d eps       ncg     rms          rms(c)
DAV:   1     0.214188070793E+04    0.21419E+04   -0.16907E+05  3500   0.137E+03
DAV:   2    -0.390908361894E+03   -0.25328E+04   -0.24137E+04  4416   0.269E+02
DAV:   3    -0.705624044852E+03   -0.31472E+03   -0.30842E+03  4536   0.887E+01
DAV:   4    -0.723099119730E+03   -0.17475E+02   -0.17348E+02  4712   0.221E+01
DAV:   5    -0.723830270458E+03   -0.73115E+00   -0.72997E+00  4880   0.413E+00    0.448E+01
RMM:   6    -0.646527330587E+03    0.77303E+02   -0.23851E+02  3518   0.207E+01    0.161E+01
RMM:   7    -0.647952158435E+03   -0.14248E+01   -0.86985E+01  3704   0.136E+01    0.107E+01
RMM:   8    -0.646592517657E+03    0.13596E+01   -0.10622E+01  3751   0.537E+00    0.725E+00
RMM:   9    -0.646227596339E+03    0.36492E+00   -0.79016E+00  3578   0.422E+00    0.318E+00
RMM:  10    -0.645719879057E+03    0.50772E+00   -0.80257E-01  3717   0.165E+00    0.215E+00
RMM:  11    -0.645599758035E+03    0.12012E+00   -0.46021E-01  4350   0.912E-01    0.130E+00
RMM:  12    -0.645568440770E+03    0.31317E-01   -0.99820E-01  4049   0.130E+00    0.102E+00
RMM:  13    -0.645493879841E+03    0.74561E-01   -0.14672E-01  3656   0.610E-01    0.608E-01
RMM:  14    -0.645475407459E+03    0.18472E-01   -0.83448E-02  4190   0.408E-01    0.362E-01
RMM:  15    -0.645455680682E+03    0.19727E-01   -0.47111E-02  4785   0.246E-01    0.259E-01
RMM:  16    -0.645458483619E+03   -0.28029E-02   -0.38732E-02  5122   0.207E-01    0.411E-01
RMM:  17    -0.645458554660E+03   -0.71041E-04   -0.18025E-02  5184   0.157E-01    0.148E-01
RMM:  18    -0.645461362586E+03   -0.28079E-02   -0.12333E-02  5160   0.142E-01    0.112E-01
RMM:  19    -0.645463902373E+03   -0.25398E-02   -0.51930E-03  5890   0.879E-02    0.121E-01
RMM:  20    -0.645467054928E+03   -0.31526E-02   -0.30405E-03  5626   0.632E-02    0.731E-02
RMM:  21    -0.645470538400E+03   -0.34835E-02   -0.25300E-03  5586   0.600E-02    0.582E-02
RMM:  22    -0.645471222656E+03   -0.68426E-03   -0.14029E-03  5960   0.400E-02    0.312E-02
RMM:  23    -0.645471979266E+03   -0.75661E-03   -0.58424E-04  6034   0.298E-02    0.215E-02
RMM:  24    -0.645472469661E+03   -0.49039E-03   -0.41037E-04  6012   0.231E-02    0.118E-02
RMM:  25    -0.645472604680E+03   -0.13502E-03   -0.25891E-04  5881   0.172E-02    0.883E-03
RMM:  26    -0.645472778474E+03   -0.17379E-03   -0.12374E-04  5933   0.142E-02    0.478E-03
RMM:  27    -0.645472873843E+03   -0.95369E-04   -0.93663E-05  5496   0.115E-02    0.475E-03
RMM:  28    -0.645472903873E+03   -0.30030E-04   -0.60023E-05  4875   0.917E-03    0.278E-03
RMM:  29    -0.645472924592E+03   -0.20720E-04   -0.36628E-05  4909   0.779E-03    0.125E-03
RMM:  30    -0.645472935153E+03   -0.10561E-04   -0.24054E-05  4305   0.639E-03    0.877E-04
RMM:  31    -0.645472937813E+03   -0.26596E-05   -0.15031E-05  4100   0.545E-03    0.761E-04
RMM:  32    -0.645472939801E+03   -0.19880E-05   -0.10077E-05  3674   0.489E-03    0.481E-04
RMM:  33    -0.645472941802E+03   -0.20013E-05   -0.77522E-06  3556   0.450E-03    0.392E-04
RMM:  34    -0.645472942549E+03   -0.74706E-06   -0.59644E-06  3283   0.415E-03
   1 F= -.64547294E+03 E0= -.64541348E+03  d E =-.645473E+03
       N       E                     dE             d eps       ncg     rms          rms(c)
DAV:   1    -0.645472847545E+03    0.94257E-04   -0.56038E-02  3636   0.383E-01    0.379E-02
RMM:   2    -0.645473112379E+03   -0.26483E-03   -0.28328E-03  3671   0.777E-02    0.268E-02
RMM:   3    -0.645473119096E+03   -0.67176E-05   -0.31529E-04  4473   0.298E-02    0.201E-02
RMM:   4    -0.645473113426E+03    0.56697E-05   -0.59639E-05  4180   0.130E-02    0.831E-03
RMM:   5    -0.645473112757E+03    0.66986E-06   -0.15482E-05  3650   0.648E-03    0.662E-03
RMM:   6    -0.645473111827E+03    0.92916E-06   -0.46919E-06  2710   0.334E-03
   2 F= -.64547311E+03 E0= -.64541363E+03  d E =-.169278E-03
       N       E                     dE             d eps       ncg     rms          rms(c)
DAV:   1    -0.645473160985E+03   -0.48228E-04   -0.13433E-02  3612   0.185E-01    0.192E-02
RMM:   2    -0.645473226164E+03   -0.65179E-04   -0.71059E-04  3538   0.386E-02    0.144E-02
RMM:   3    -0.645473227997E+03   -0.18335E-05   -0.74146E-05  3556   0.145E-02    0.111E-02
RMM:   4    -0.645473228872E+03   -0.87479E-06   -0.14796E-05  2911   0.641E-03    0.104E-02
RMM:   5    -0.645473227083E+03    0.17885E-05   -0.44281E-06  2413   0.357E-03    0.335E-03
RMM:   6    -0.645473227167E+03   -0.84039E-07   -0.18498E-06  2195   0.231E-03
   3 F= -.64547323E+03 E0= -.64541376E+03  d E =-.115340E-03
       N       E                     dE             d eps       ncg     rms          rms(c)
DAV:   1    -0.645473271474E+03   -0.44391E-04   -0.54902E-03  3688   0.107E-01    0.110E-02
RMM:   2    -0.645473290178E+03   -0.18704E-04   -0.19161E-04  3463   0.209E-02    0.498E-03
RMM:   3    -0.645473291264E+03   -0.10859E-05   -0.21052E-05  3075   0.805E-03    0.449E-03
RMM:   4    -0.645473291505E+03   -0.24043E-06   -0.39321E-06  2353   0.325E-03
   4 F= -.64547329E+03 E0= -.64541382E+03  d E =-.643372E-04
       N       E                     dE             d eps       ncg     rms          rms(c)
DAV:   1    -0.645473325001E+03   -0.33737E-04   -0.25551E-02  3752   0.210E-01    0.225E-02
RMM:   2    -0.645473394706E+03   -0.69705E-04   -0.72902E-04  3518   0.386E-02    0.937E-03
RMM:   3    -0.645473400045E+03   -0.53389E-05   -0.78372E-05  3888   0.147E-02    0.799E-03
RMM:   4    -0.645473401786E+03   -0.17411E-05   -0.15186E-05  3065   0.583E-03    0.795E-03
RMM:   5    -0.645473402290E+03   -0.50341E-06   -0.57149E-06  2331   0.298E-03
   5 F= -.64547340E+03 E0= -.64541394E+03  d E =-.110785E-03
       N       E                     dE             d eps       ncg     rms          rms(c)
DAV:   1    -0.645473405142E+03   -0.33560E-05   -0.29243E-04  3864   0.265E-02    0.332E-03
RMM:   2    -0.645473406664E+03   -0.15219E-05   -0.14853E-05  2444   0.557E-03    0.207E-03
RMM:   3    -0.645473406995E+03   -0.33100E-06   -0.21670E-06  2114   0.231E-03
   6 F= -.64547341E+03 E0= -.64541395E+03  d E =-.470544E-05
       N       E                     dE             d eps       ncg     rms          rms(c)
DAV:   1    -0.645473433750E+03   -0.27086E-04   -0.58233E-03  3704   0.922E-02    0.105E-02
RMM:   2    -0.645473450249E+03   -0.16500E-04   -0.16624E-04  3389   0.184E-02    0.426E-03
RMM:   3    -0.645473452147E+03   -0.18975E-05   -0.19868E-05  2818   0.710E-03    0.340E-03
RMM:   4    -0.645473452784E+03   -0.63678E-06   -0.35566E-06  2271   0.288E-03
   7 F= -.64547345E+03 E0= -.64541400E+03  d E =-.457887E-04
       N       E                     dE             d eps       ncg     rms          rms(c)
DAV:   1    -0.645473460131E+03   -0.79839E-05   -0.50271E-02  3640   0.203E-01    0.297E-02
RMM:   2    -0.645473559141E+03   -0.99010E-04   -0.10462E-03  3522   0.393E-02    0.116E-02
RMM:   3    -0.645473574986E+03   -0.15845E-04   -0.12612E-04  3952   0.153E-02    0.890E-03
RMM:   4    -0.645473579048E+03   -0.40625E-05   -0.23297E-05  3109   0.614E-03    0.810E-03
RMM:   5    -0.645473581825E+03   -0.27770E-05   -0.96035E-06  2284   0.293E-03    0.413E-03
RMM:   6    -0.645473584978E+03   -0.31532E-05   -0.59110E-06  2120   0.203E-03    0.184E-03
RMM:   7    -0.645473586177E+03   -0.11981E-05   -0.30062E-06  1975   0.124E-03    0.130E-03
RMM:   8    -0.645473586902E+03   -0.72563E-06   -0.19317E-06  1349   0.876E-04
   8 F= -.64547359E+03 E0= -.64541416E+03  d E =-.134118E-03
       N       E                     dE             d eps       ncg     rms          rms(c)
DAV:   1    -0.645473606162E+03   -0.19986E-04   -0.20347E-02  3640   0.116E-01    0.178E-02
RMM:   2    -0.645473645491E+03   -0.39328E-04   -0.40147E-04  3463   0.226E-02    0.657E-03
RMM:   3    -0.645473652624E+03   -0.71332E-05   -0.49739E-05  3296   0.890E-03    0.487E-03
RMM:   4    -0.645473654878E+03   -0.22543E-05   -0.93932E-06  2320   0.358E-03    0.377E-03
RMM:   5    -0.645473657698E+03   -0.28197E-05   -0.56948E-06  2098   0.211E-03    0.248E-03
RMM:   6    -0.645473658656E+03   -0.95820E-06   -0.25522E-06  2017   0.128E-03
   9 F= -.64547366E+03 E0= -.64541424E+03  d E =-.717540E-04
       N       E                     dE             d eps       ncg     rms          rms(c)
DAV:   1    -0.645473643452E+03    0.14246E-04   -0.92869E-04  3800   0.330E-02    0.508E-03
RMM:   2    -0.645473645505E+03   -0.20527E-05   -0.20835E-05  2967   0.706E-03    0.261E-03
RMM:   3    -0.645473645955E+03   -0.45025E-06   -0.23459E-06  2089   0.283E-03
  10 F= -.64547365E+03 E0= -.64541422E+03  d E =0.127011E-04
       N       E                     dE             d eps       ncg     rms          rms(c)
DAV:   1    -0.645473634667E+03    0.10838E-04   -0.11479E-03  3640   0.562E-02    0.585E-03
RMM:   2    -0.645473639683E+03   -0.50165E-05   -0.51067E-05  3155   0.110E-02    0.325E-03
RMM:   3    -0.645473640064E+03   -0.38053E-06   -0.62322E-06  2391   0.451E-03
  11 F= -.64547364E+03 E0= -.64541421E+03  d E =0.589139E-05
       N       E                     dE             d eps       ncg     rms          rms(c)
DAV:   1    -0.645473632881E+03    0.68023E-05   -0.18753E-04  3784   0.219E-02    0.346E-03
RMM:   2    -0.645473633774E+03   -0.89322E-06   -0.90787E-06  2534   0.502E-03
  12 F= -.64547363E+03 E0= -.64541420E+03  d E =0.628966E-05
       N       E                     dE             d eps       ncg     rms          rms(c)
DAV:   1    -0.645473613987E+03    0.18894E-04   -0.42177E-03  3664   0.970E-02    0.105E-02
RMM:   2    -0.645473628497E+03   -0.14510E-04   -0.14987E-04  3357   0.184E-02    0.443E-03
RMM:   3    -0.645473629538E+03   -0.10411E-05   -0.17045E-05  2846   0.731E-03    0.525E-03
RMM:   4    -0.645473629280E+03    0.25822E-06   -0.30935E-06  2247   0.311E-03
  13 F= -.64547363E+03 E0= -.64541420E+03  d E =0.449411E-05
       N       E                     dE             d eps       ncg     rms          rms(c)
DAV:   1    -0.645473590200E+03    0.39338E-04   -0.58218E-03  3720   0.521E-02    0.100E-02
RMM:   2    -0.645473600053E+03   -0.98528E-05   -0.10470E-04  2750   0.979E-03    0.378E-03
RMM:   3    -0.645473602155E+03   -0.21023E-05   -0.14200E-05  2305   0.387E-03    0.353E-03
RMM:   4    -0.645473602292E+03   -0.13722E-06   -0.24103E-06  1980   0.174E-03
  14 F= -.64547360E+03 E0= -.64541417E+03  d E =0.269874E-04
       N       E                     dE             d eps       ncg     rms          rms(c)
DAV:   1    -0.645473512369E+03    0.89787E-04   -0.17966E-02  3672   0.955E-02    0.176E-02
RMM:   2    -0.645473544801E+03   -0.32433E-04   -0.32969E-04  3325   0.180E-02    0.621E-03
RMM:   3    -0.645473552089E+03   -0.72879E-05   -0.42950E-05  2780   0.708E-03    0.502E-03
RMM:   4    -0.645473553730E+03   -0.16404E-05   -0.68146E-06  2191   0.293E-03    0.404E-03
RMM:   5    -0.645473555636E+03   -0.19067E-05   -0.37921E-06  2045   0.166E-03    0.194E-03
RMM:   6    -0.645473557160E+03   -0.15237E-05   -0.22621E-06  1774   0.117E-03    0.128E-03
RMM:   7    -0.645473557539E+03   -0.37868E-06   -0.12061E-06  1248   0.798E-04
  15 F= -.64547356E+03 E0= -.64541413E+03  d E =0.447537E-04
       N       E                     dE             d eps       ncg     rms          rms(c)
DAV:   1    -0.645473448404E+03    0.10876E-03   -0.21938E-02  3624   0.112E-01    0.190E-02
RMM:   2    -0.645473490087E+03   -0.41683E-04   -0.41869E-04  3455   0.218E-02    0.659E-03
RMM:   3    -0.645473499694E+03   -0.96066E-05   -0.54911E-05  3176   0.859E-03    0.487E-03
RMM:   4    -0.645473502809E+03   -0.31146E-05   -0.86082E-06  2261   0.334E-03    0.347E-03
RMM:   5    -0.645473507141E+03   -0.43320E-05   -0.56601E-06  2103   0.199E-03    0.202E-03
RMM:   6    -0.645473508245E+03   -0.11042E-05   -0.24424E-06  1906   0.122E-03    0.115E-03
RMM:   7    -0.645473508990E+03   -0.74539E-06   -0.16048E-06  1418   0.895E-04
  16 F= -.64547351E+03 E0= -.64541409E+03  d E =0.485487E-04
       N       E                     dE             d eps       ncg     rms          rms(c)
DAV:   1    -0.645473512163E+03   -0.39180E-05   -0.23047E-04  3808   0.165E-02    0.289E-03
RMM:   2    -0.645473512917E+03   -0.75430E-06   -0.51176E-06  2153   0.326E-03
  17 F= -.64547351E+03 E0= -.64541409E+03  d E =-.392690E-05
       N       E                     dE             d eps       ncg     rms          rms(c)
DAV:   1    -0.645473474078E+03    0.38085E-04   -0.93372E-03  3592   0.120E-01    0.141E-02
RMM:   2    -0.645473498472E+03   -0.24394E-04   -0.25544E-04  3505   0.241E-02    0.635E-03
RMM:   3    -0.645473501837E+03   -0.33651E-05   -0.33692E-05  3537   0.977E-03    0.636E-03
RMM:   4    -0.645473502231E+03   -0.39399E-06   -0.55476E-06  2447   0.395E-03
  18 F= -.64547350E+03 E0= -.64541409E+03  d E =0.106858E-04
       N       E                     dE             d eps       ncg     rms          rms(c)
DAV:   1    -0.645473498885E+03    0.29522E-05   -0.35838E-04  3824   0.227E-02    0.388E-03
RMM:   2    -0.645473500751E+03   -0.18657E-05   -0.10345E-05  2550   0.498E-03    0.281E-03
RMM:   3    -0.645473501442E+03   -0.69165E-06   -0.17657E-06  2090   0.217E-03
  19 F= -.64547350E+03 E0= -.64541409E+03  d E =0.788839E-06
       N       E                     dE             d eps       ncg     rms          rms(c)
DAV:   1    -0.645473503671E+03   -0.29205E-05   -0.13716E-03  3760   0.457E-02    0.584E-03
RMM:   2    -0.645473506884E+03   -0.32128E-05   -0.35974E-05  3169   0.936E-03    0.228E-03
RMM:   3    -0.645473507392E+03   -0.50791E-06   -0.44166E-06  2288   0.378E-03
  20 F= -.64547351E+03 E0= -.64541409E+03  d E =-.594952E-05
       N       E                     dE             d eps       ncg     rms          rms(c)
DAV:   1    -0.645473520461E+03   -0.13578E-04   -0.15700E-03  3784   0.537E-02    0.625E-03
RMM:   2    -0.645473524970E+03   -0.45082E-05   -0.47776E-05  3021   0.102E-02    0.268E-03
RMM:   3    -0.645473525329E+03   -0.35935E-06   -0.52836E-06  2312   0.406E-03
  21 F= -.64547353E+03 E0= -.64541411E+03  d E =-.179372E-04
       N       E                     dE             d eps       ncg     rms          rms(c)
DAV:   1    -0.645473534066E+03   -0.90966E-05   -0.17970E-03  3680   0.277E-02    0.564E-03
RMM:   2    -0.645473537022E+03   -0.29556E-05   -0.31173E-05  2424   0.561E-03    0.215E-03
RMM:   3    -0.645473537698E+03   -0.67628E-06   -0.40695E-06  2077   0.239E-03
  22 F= -.64547354E+03 E0= -.64541412E+03  d E =-.123691E-04
       N       E                     dE             d eps       ncg     rms          rms(c)
DAV:   1    -0.645473234074E+03    0.30295E-03   -0.85282E-02  3680   0.217E-01    0.379E-02
RMM:   2    -0.645473378036E+03   -0.14396E-03   -0.15536E-03  3511   0.404E-02    0.133E-02
RMM:   3    -0.645473402987E+03   -0.24950E-04   -0.18821E-04  3671   0.151E-02    0.908E-03
RMM:   4    -0.645473408811E+03   -0.58239E-05   -0.20870E-05  2794   0.535E-03    0.788E-03
RMM:   5    -0.645473414099E+03   -0.52882E-05   -0.13447E-05  2359   0.300E-03    0.365E-03
RMM:   6    -0.645473417589E+03   -0.34899E-05   -0.67749E-06  2085   0.183E-03    0.198E-03
RMM:   7    -0.645473418682E+03   -0.10937E-05   -0.40468E-06  1619   0.115E-03    0.125E-03
RMM:   8    -0.645473419804E+03   -0.11216E-05   -0.27005E-06  1286   0.956E-04    0.106E-03
RMM:   9    -0.645473420925E+03   -0.11212E-05   -0.16783E-06  1172   0.813E-04    0.114E-03
RMM:  10    -0.645473423175E+03   -0.22500E-05   -0.15018E-06  1440   0.912E-04    0.971E-04
RMM:  11    -0.645473423424E+03   -0.24917E-06   -0.67158E-07   809   0.617E-04
  23 F= -.64547342E+03 E0= -.64541401E+03  d E =0.114274E-03
       N       E                     dE             d eps       ncg     rms          rms(c)
DAV:   1    -0.645473176645E+03    0.24653E-03   -0.63238E-02  3634   0.165E-01    0.330E-02
RMM:   2    -0.645473279862E+03   -0.10322E-03   -0.10913E-03  3498   0.319E-02    0.110E-02
RMM:   3    -0.645473301578E+03   -0.21717E-04   -0.14201E-04  3731   0.125E-02    0.775E-03
RMM:   4    -0.645473307044E+03   -0.54659E-05   -0.18050E-05  2564   0.438E-03    0.560E-03
RMM:   5    -0.645473316979E+03   -0.99350E-05   -0.15989E-05  2196   0.283E-03    0.356E-03
RMM:   6    -0.645473319372E+03   -0.23925E-05   -0.63484E-06  2110   0.169E-03    0.190E-03
RMM:   7    -0.645473320823E+03   -0.14515E-05   -0.42290E-06  1667   0.118E-03    0.110E-03
RMM:   8    -0.645473322641E+03   -0.18178E-05   -0.29132E-06  1391   0.991E-04    0.132E-03
RMM:   9    -0.645473324643E+03   -0.20015E-05   -0.17808E-06  1416   0.875E-04    0.142E-03
RMM:  10    -0.645473327291E+03   -0.26479E-05   -0.16979E-06  1378   0.908E-04    0.722E-04
RMM:  11    -0.645473327663E+03   -0.37229E-06   -0.70884E-07   851   0.640E-04
  24 F= -.64547333E+03 E0= -.64541392E+03  d E =0.957612E-04
       N       E                     dE             d eps       ncg     rms          rms(c)
DAV:   1    -0.645472773676E+03    0.55361E-03   -0.37392E-01  3710   0.428E-01    0.799E-02
RMM:   2    -0.645473379469E+03   -0.60579E-03   -0.66378E-03  3551   0.828E-02    0.281E-02
RMM:   3    -0.645473476471E+03   -0.97002E-04   -0.81023E-04  4329   0.316E-02    0.191E-02
RMM:   4    -0.645473491747E+03   -0.15276E-04   -0.94327E-05  3987   0.107E-02    0.132E-02
RMM:   5    -0.645473517809E+03   -0.26062E-04   -0.80994E-05  2906   0.605E-03    0.846E-03
RMM:   6    -0.645473524217E+03   -0.64081E-05   -0.30845E-05  2388   0.340E-03    0.451E-03
