 vasp.6.3.2 27Jun22 (build Mar 15 2023 15:45:48) complex                        
  
 executed on             LinuxIFC date 2024.07.19  11:58:17
 running on    4 total cores
 distrk:  each k-point on    1 cores,    4 groups
 distr:  one band on NCORE=   1 cores,    1 groups


--------------------------------------------------------------------------------------------------------


 INCAR:
   SYSTEM = ni3al
   PREC = Accurate
   EDIFF = 1E-6
   EDIFFG = -1E-2
   ISTART = 0
   ICHARG = 2
   LREAL = Auto
   NSW = 300
   ISIF = 2
   IBRION = 1
   ISMEAR = 0
   SIGMA = 0.1
   ENCUT = 530
   ALGO = Fast
   LMAXMIX = 4
   AMIN = 0.01
   NELM = 150
   LCHARG = .FALSE.
   LWAVE = .FALSE.
   KPAR = 8
   NCORE = 4
   ISYM = 0

 POTCAR:   PAW_PBE C 08Apr2002                    
 POTCAR:   PAW_PBE F 08Apr2002                    
 POTCAR:   PAW_PBE Si 05Jan2001                   
 POTCAR:   PAW_PBE K_sv 06Sep2000                 
 POTCAR:   PAW_PBE C 08Apr2002                    
   VRHFIN =C: s2p2                                                                                  
   LEXCH  = PE                                                                                      
   EATOM  =   147.1560 eV,   10.8157 Ry                                                             
                                                                                                    
   TITEL  = PAW_PBE C 08Apr2002                                                                     
   LULTRA =        F    use ultrasoft PP ?                                                          
   IUNSCR =        0    unscreen: 0-lin 1-nonlin 2-no                                               
   RPACOR =     .000    partial core radius                                                         
   POMASS =   12.011; ZVAL   =    4.000    mass and valenz                                          
   RCORE  =    1.500    outmost cutoff radius                                                       
   RWIGS  =    1.630; RWIGS  =     .863    wigner-seitz radius (au A)                               
   ENMAX  =  400.000; ENMIN  =  300.000 eV                                                          
   ICORE  =        2    local potential                                                             
   LCOR   =        T    correct aug charges                                                         
   LPAW   =        T    paw PP                                                                      
   EAUG   =  644.873                                                                                
   DEXC   =     .000                                                                                
   RMAX   =    2.266    core radius for proj-oper                                                   
   RAUG   =    1.300    factor for augmentation sphere                                              
   RDEP   =    1.501    radius for radial grids                                                     
   RDEPT  =    1.300    core radius for aug-charge                                                  
   QCUT   =   -5.516; QGAM   =   11.032    optimization parameters                                  
                                                                                                    
   Description                                                                                      
     l     E      TYP  RCUT    TYP  RCUT                                                            
     0   .000     23  1.200                                                                         
     0   .000     23  1.200                                                                         
     1   .000     23  1.500                                                                         
     1  2.500     23  1.500                                                                         
     2   .000      7  1.500                                                                         
  local pseudopotential read in
  atomic valenz-charges read in
  non local Contribution for L=           0  read in
    real space projection operators read in
  non local Contribution for L=           0  read in
    real space projection operators read in
  non local Contribution for L=           1  read in
    real space projection operators read in
  non local Contribution for L=           1  read in
    real space projection operators read in
    PAW grid and wavefunctions read in
 
   number of l-projection  operators is LMAX  =           4
   number of lm-projection operators is LMMAX =           8
 
 POTCAR:   PAW_PBE F 08Apr2002                    
   VRHFIN =F: s2p5                                                                                  
   LEXCH  = PE                                                                                      
   EATOM  =   659.4942 eV,   48.4715 Ry                                                             
                                                                                                    
   TITEL  = PAW_PBE F 08Apr2002                                                                     
   LULTRA =        F    use ultrasoft PP ?                                                          
   IUNSCR =        0    unscreen: 0-lin 1-nonlin 2-no                                               
   RPACOR =     .000    partial core radius                                                         
   POMASS =   18.998; ZVAL   =    7.000    mass and valenz                                          
   RCORE  =    1.520    outmost cutoff radius                                                       
   RWIGS  =    1.500; RWIGS  =     .794    wigner-seitz radius (au A)                               
   ENMAX  =  400.000; ENMIN  =  300.000 eV                                                          
   ICORE  =        2    local potential                                                             
   LCOR   =        T    correct aug charges                                                         
   LPAW   =        T    paw PP                                                                      
   EAUG   =  613.614                                                                                
   DEXC   =     .000                                                                                
   RMAX   =    2.254    core radius for proj-oper                                                   
   RAUG   =    1.300    factor for augmentation sphere                                              
   RDEP   =    1.539    radius for radial grids                                                     
   QCUT   =   -5.545; QGAM   =   11.091    optimization parameters                                  
                                                                                                    
   Description                                                                                      
     l     E      TYP  RCUT    TYP  RCUT                                                            
     0   .000     23  1.200                                                                         
     0  -.700     23  1.200                                                                         
     1   .000     23  1.520                                                                         
     1   .100     23  1.520                                                                         
     2   .000      7  1.500                                                                         
  local pseudopotential read in
  atomic valenz-charges read in
  non local Contribution for L=           0  read in
    real space projection operators read in
  non local Contribution for L=           0  read in
    real space projection operators read in
  non local Contribution for L=           1  read in
    real space projection operators read in
  non local Contribution for L=           1  read in
    real space projection operators read in
    PAW grid and wavefunctions read in
 
   number of l-projection  operators is LMAX  =           4
   number of lm-projection operators is LMMAX =           8
 
 POTCAR:   PAW_PBE Si 05Jan2001                   
   VRHFIN =Si: s2p2                                                                                 
   LEXCH  = PE                                                                                      
   EATOM  =   103.0669 eV,    7.5752 Ry                                                             
                                                                                                    
   TITEL  = PAW_PBE Si 05Jan2001                                                                    
   LULTRA =        F    use ultrasoft PP ?                                                          
   IUNSCR =        1    unscreen: 0-lin 1-nonlin 2-no                                               
   RPACOR =    1.500    partial core radius                                                         
   POMASS =   28.085; ZVAL   =    4.000    mass and valenz                                          
   RCORE  =    1.900    outmost cutoff radius                                                       
   RWIGS  =    2.480; RWIGS  =    1.312    wigner-seitz radius (au A)                               
   ENMAX  =  245.345; ENMIN  =  184.009 eV                                                          
   ICORE  =        2    local potential                                                             
   LCOR   =        T    correct aug charges                                                         
   LPAW   =        T    paw PP                                                                      
   EAUG   =  322.069                                                                                
   DEXC   =    -.007                                                                                
   RMAX   =    2.944    core radius for proj-oper                                                   
   RAUG   =    1.300    factor for augmentation sphere                                              
   RDEP   =    1.993    radius for radial grids                                                     
   QCUT   =   -4.246; QGAM   =    8.493    optimization parameters                                  
                                                                                                    
   Description                                                                                      
     l     E      TYP  RCUT    TYP  RCUT                                                            
     0   .000     23  1.900                                                                         
     0   .000     23  1.900                                                                         
     1   .000     23  1.900                                                                         
     1   .000     23  1.900                                                                         
     2   .000      7  1.900                                                                         
  local pseudopotential read in
  partial core-charges read in
  atomic valenz-charges read in
  non local Contribution for L=           0  read in
    real space projection operators read in
  non local Contribution for L=           0  read in
    real space projection operators read in
  non local Contribution for L=           1  read in
    real space projection operators read in
  non local Contribution for L=           1  read in
    real space projection operators read in
    PAW grid and wavefunctions read in
 
   number of l-projection  operators is LMAX  =           4
   number of lm-projection operators is LMMAX =           8
 
 POTCAR:   PAW_PBE K_sv 06Sep2000                 
   VRHFIN =K:  3s3p4s                                                                               
   LEXCH  = PE                                                                                      
   EATOM  =   774.7423 eV,   56.9420 Ry                                                             
                                                                                                    
   TITEL  = PAW_PBE K_sv 06Sep2000                                                                  
   LULTRA =        F    use ultrasoft PP ?                                                          
   IUNSCR =        1    unscreen: 0-lin 1-nonlin 2-no                                               
   RPACOR =    2.200    partial core radius                                                         
   POMASS =   39.098; ZVAL   =    9.000    mass and valenz                                          
   RCORE  =    2.300    outmost cutoff radius                                                       
   RWIGS  =    3.000; RWIGS  =    1.588    wigner-seitz radius (au A)                               
   ENMAX  =  259.216; ENMIN  =  194.412 eV                                                          
   RCLOC  =    2.005    cutoff for local pot                                                        
   LCOR   =        T    correct aug charges                                                         
   LPAW   =        T    paw PP                                                                      
   EAUG   =  427.853                                                                                
   DEXC   =     .000                                                                                
   RMAX   =    2.864    core radius for proj-oper                                                   
   RAUG   =    1.300    factor for augmentation sphere                                              
   RDEP   =    2.372    radius for radial grids                                                     
   QCUT   =   -4.365; QGAM   =    8.730    optimization parameters                                  
                                                                                                    
   Description                                                                                      
     l     E      TYP  RCUT    TYP  RCUT                                                            
     0   .000     23  2.300                                                                         
     0   .000     23  2.300                                                                         
     1   .000     23  2.300                                                                         
     1 -1.500     23  2.300                                                                         
     2   .000     23  2.300                                                                         
  local pseudopotential read in
  partial core-charges read in
  atomic valenz-charges read in
  non local Contribution for L=           0  read in
    real space projection operators read in
  non local Contribution for L=           0  read in
    real space projection operators read in
  non local Contribution for L=           1  read in
    real space projection operators read in
  non local Contribution for L=           1  read in
    real space projection operators read in
  non local Contribution for L=           2  read in
    real space projection operators read in
    PAW grid and wavefunctions read in
 
   number of l-projection  operators is LMAX  =           5
   number of lm-projection operators is LMMAX =          13
 
 Optimization of the real space projectors (new method)

 maximal supplied QI-value         = 25.13
 optimisation between [QCUT,QGAM] = [ 11.56, 23.37] = [ 37.43,152.99] Ry 
 Optimized for a Real-space Cutoff    1.07 Angstroem

   l    n(q)    QCUT    max X(q) W(low)/X(q) W(high)/X(q)  e(spline) 
   0      7    11.561     5.582    0.43E-04    0.82E-04    0.19E-07
   0      7    11.561    69.432    0.18E-03    0.47E-03    0.23E-06
   1      7    11.561     2.780    0.18E-04    0.55E-04    0.48E-07
   1      7    11.561     4.549    0.18E-03    0.21E-03    0.13E-06
 Optimization of the real space projectors (new method)

 maximal supplied QI-value         = 24.76
 optimisation between [QCUT,QGAM] = [ 11.64, 23.52] = [ 37.91,154.88] Ry 
 Optimized for a Real-space Cutoff    1.07 Angstroem

   l    n(q)    QCUT    max X(q) W(low)/X(q) W(high)/X(q)  e(spline) 
   0      7    11.635     4.906    0.42E-04    0.10E-03    0.40E-07
   0      7    11.635     5.365    0.10E-03    0.31E-03    0.19E-06
   1      7    11.635     2.511    0.38E-04    0.13E-03    0.21E-07
   1      7    11.635     3.801    0.24E-03    0.28E-03    0.21E-06
 Optimization of the real space projectors (new method)

 maximal supplied QI-value         = 19.84
 optimisation between [QCUT,QGAM] = [ 11.71, 23.41] = [ 38.38,153.51] Ry 
 Optimized for a Real-space Cutoff    1.20 Angstroem

   l    n(q)    QCUT    max X(q) W(low)/X(q) W(high)/X(q)  e(spline) 
   0      8    11.707     8.708    0.17E-04    0.67E-05    0.45E-08
   0      8    11.707   106.241    0.59E-04    0.18E-03    0.53E-07
   1      8    11.707     5.901    0.60E-05    0.19E-04    0.21E-07
   1      8    11.707    73.241    0.22E-03    0.21E-04    0.75E-07
 Optimization of the real space projectors (new method)

 maximal supplied QI-value         = 16.25
 optimisation between [QCUT,QGAM] = [ 11.70, 23.56] = [ 38.34,155.50] Ry 
 Optimized for a Real-space Cutoff    1.35 Angstroem

   l    n(q)    QCUT    max X(q) W(low)/X(q) W(high)/X(q)  e(spline) 
   0     10    11.701     6.336    0.13E-04    0.76E-05    0.61E-08
   0     10    11.701    13.439    0.24E-04    0.57E-04    0.47E-07
   1      9    11.701     3.724    0.22E-04    0.12E-04    0.26E-07
   1      9    11.701    38.716    0.12E-03    0.50E-03    0.44E-06
   2      9    11.701     3.434    0.48E-04    0.68E-04    0.36E-07
 PAW_PBE C 08Apr2002                    :
 energy of atom  1       EATOM= -147.1560
 kinetic energy error for atom=    0.0069 (will be added to EATOM!!)
 PAW_PBE F 08Apr2002                    :
 energy of atom  2       EATOM= -659.4942
 kinetic energy error for atom=    0.0313 (will be added to EATOM!!)
 PAW_PBE Si 05Jan2001                   :
 energy of atom  3       EATOM= -103.0669
 kinetic energy error for atom=    0.0005 (will be added to EATOM!!)
 PAW_PBE K_sv 06Sep2000                 :
 energy of atom  4       EATOM= -774.7423
 kinetic energy error for atom=    0.0012 (will be added to EATOM!!)
 
 
 POSCAR: POSCAR
  positions in direct lattice
  velocities in cartesian coordinates
 exchange correlation table for  LEXCH =        8
   RHO(1)=    0.500       N(1)  =     2000
   RHO(2)=  100.500       N(2)  =     4000

 VTST: version 4.2, (08/11/21)

 CHAIN: initializing optimizer
 
 OPT: Using VASP QUASI-newton optimizer
 CHAIN: Read ICHAIN            0
 
 POSCAR: POSCAR
  positions in direct lattice
  velocities in cartesian coordinates
 


--------------------------------------------------------------------------------------------------------


 ion  position               nearest neighbor table
   1  0.000  0.000  0.000-  50 1.90
   2  0.167  0.250  0.000-  51 1.90
   3  0.000  0.000  0.389-  80 1.89  57 1.89  73 1.89  52 1.91
   4  0.167  0.250  0.389-  53 1.89  64 1.89  57 1.89  56 1.89
   5  0.000  0.167  0.130-  50 1.90  51 1.90  67 1.90  54 1.90
   6  0.167  0.417  0.130-  51 1.90  82 1.90  74 1.90  55 1.90
   7  0.000  0.333  0.260-  55 1.89  71 1.89  54 1.89  56 1.90
   8  0.167  0.083  0.260-  62 1.89  54 1.89  79 1.89  57 1.90
   9  0.333  0.000  0.000-  58 1.90
  10  0.500  0.250  0.000-  59 1.90
  11  0.333  0.000  0.389-  57 1.89  88 1.89  65 1.89  60 1.90
  12  0.500  0.250  0.389-  65 1.89  64 1.89  72 1.89  61 1.90
  13  0.333  0.167  0.130-  58 1.90  51 1.90  59 1.90  62 1.90
  14  0.500  0.417  0.130-  59 1.90  82 1.90  90 1.90  63 1.90
  15  0.333  0.333  0.260-  55 1.89  63 1.89  62 1.89  64 1.90
  16  0.500  0.083  0.260-  87 1.89  70 1.89  62 1.89  65 1.90
  17  0.667  0.000  0.000-  66 1.90
  18  0.833  0.250  0.000-  67 1.90
  19  0.667  0.000  0.389-  96 1.89  73 1.89  65 1.89  68 1.89
  20  0.833  0.250  0.389-  73 1.89  72 1.89  56 1.89  69 1.90
  21  0.667  0.167  0.130-  66 1.90  67 1.90  59 1.90  70 1.90
  22  0.833  0.417  0.130-  67 1.90  90 1.90  74 1.90  71 1.90
  23  0.667  0.333  0.260-  71 1.89  63 1.89  70 1.89  72 1.90
  24  0.833  0.083  0.260-  70 1.89  54 1.89  95 1.89  73 1.90
  25  0.000  0.500  0.000-  74 1.90
  26  0.167  0.750  0.000-  75 1.90
  27  0.000  0.500  0.389-  56 1.89  81 1.89  97 1.89  76 1.91
  28  0.167  0.750  0.389-  81 1.89  88 1.89  80 1.89  77 1.99
  29  0.000  0.667  0.130-  74 1.90  75 1.90  91 1.90  78 1.90
  30  0.167  0.917  0.130-  75 1.90  58 1.90  50 1.90  79 1.90
  31  0.000  0.833  0.260-  79 1.89  95 1.89  78 1.89  80 1.90
  32  0.167  0.583  0.260-  86 1.89  78 1.89  55 1.89  81 1.90
  33  0.333  0.500  0.000-  82 1.90
  34  0.500  0.750  0.000-  83 1.90
  35  0.333  0.500  0.389-  64 1.89  81 1.89  89 1.89  84 1.93
  36  0.500  0.750  0.389-  89 1.89  88 1.89  96 1.89  85 1.92
  37  0.333  0.667  0.130-  82 1.90  75 1.90  83 1.90  86 1.90
  38  0.500  0.917  0.130-  58 1.90  66 1.90  83 1.90  87 1.90
  39  0.333  0.833  0.260-  79 1.89  87 1.89  86 1.89  88 1.90
  40  0.500  0.583  0.260-  86 1.89  94 1.89  63 1.89  89 1.90
  41  0.667  0.500  0.000-  90 1.90
  42  0.833  0.750  0.000-  91 1.90
  43  0.667  0.500  0.389-  72 1.89  97 1.89  89 1.89  92 1.90
  44  0.833  0.750  0.389-  97 1.89  96 1.89  80 1.89  93 1.90
  45  0.667  0.667  0.130-  90 1.90  91 1.90  83 1.90  94 1.90
  46  0.833  0.917  0.130-  66 1.90  50 1.90  91 1.90  95 1.90
  47  0.667  0.833  0.260-  95 1.89  87 1.89  94 1.89  96 1.90
  48  0.833  0.583  0.260-  94 1.89  78 1.89  71 1.89  97 1.90
  49  0.171  0.734  0.550-  77 1.66  98 2.66
  50  0.000  0.000  0.098-   5 1.90  46 1.90  30 1.90   1 1.90  58 3.09  66 3.09  51 3.09  67 3.09
                            75 3.09  91 3.09  54 3.10  95 3.10  79 3.10
  51  0.167  0.250  0.098-   6 1.90  13 1.90   5 1.90   2 1.90  59 3.09  58 3.09  82 3.09  74 3.09
                            50 3.09  67 3.09  55 3.10  62 3.10  54 3.10
  52  0.975  0.990  0.487-   3 1.91  77 2.48  68 2.84  93 2.91  73 3.02  80 3.04  69 3.12
  53  0.163  0.255  0.486-   4 1.89  84 2.78  76 2.85  69 2.98  61 3.05  56 3.05  64 3.09  57 3.12

  54  0.000  0.167  0.228-  24 1.89   8 1.89   7 1.89   5 1.90  95 3.09  70 3.09  62 3.09  71 3.09
                            79 3.09  55 3.09  73 3.10  57 3.10  56 3.10  50 3.10  67 3.10  51 3.10
  55  0.167  0.417  0.228-  15 1.89   7 1.89  32 1.89   6 1.90  63 3.09  62 3.09  86 3.09  78 3.09
                            54 3.09  71 3.09  64 3.10  56 3.10  81 3.10  51 3.10  82 3.10  74 3.10
  56  0.000  0.333  0.357-  27 1.89  20 1.89   4 1.89   7 1.90  76 2.94  69 3.04  53 3.05  72 3.09
                            64 3.09  73 3.09  81 3.09  97 3.09  57 3.09  71 3.10  55 3.10  54 3.10
  57  0.167  0.083  0.357-  11 1.89   3 1.89   4 1.89   8 1.90  88 3.09  80 3.09  65 3.09  73 3.09
                            64 3.09  56 3.09  62 3.10  54 3.10  79 3.10  53 3.12
  58  0.333  0.000  0.098-  13 1.90  30 1.90  38 1.90   9 1.90  50 3.09  51 3.09  75 3.09  59 3.09
                            83 3.09  66 3.09  62 3.10  79 3.10  87 3.10
  59  0.500  0.250  0.098-  14 1.90  13 1.90  21 1.90  10 1.90  51 3.09  67 3.09  66 3.09  58 3.09
                            82 3.09  90 3.09  63 3.10  62 3.10  70 3.10
  60  0.354  0.992  0.486-  11 1.90  77 2.49  85 2.89  68 2.93  65 3.02  88 3.04  61 3.06
  61  0.491  0.252  0.487-  12 1.90  84 2.76  53 3.05  64 3.05  60 3.06  65 3.11  72 3.13
  62  0.333  0.167  0.228-   8 1.89  16 1.89  15 1.89  13 1.90  87 3.09  54 3.09  79 3.09  55 3.09
                            63 3.09  70 3.09  57 3.10  65 3.10  64 3.10  58 3.10  51 3.10  59 3.10
  63  0.500  0.417  0.228-  15 1.89  23 1.89  40 1.89  14 1.90  55 3.09  71 3.09  70 3.09  62 3.09
                            86 3.09  94 3.09  64 3.10  72 3.10  89 3.10  59 3.10  90 3.10  82 3.10
  64  0.333  0.333  0.357-  35 1.89   4 1.89  12 1.89  15 1.90  84 2.92  61 3.05  53 3.09  56 3.09
                            81 3.09  89 3.09  72 3.09  57 3.09  65 3.09  55 3.10  63 3.10  62 3.10
  65  0.500  0.083  0.357-  11 1.89  19 1.89  12 1.89  16 1.90  60 3.02  88 3.09  96 3.09  57 3.09
                            73 3.09  72 3.09  64 3.09  87 3.10  70 3.10  62 3.10  61 3.11  68 3.14
  66  0.667  0.000  0.098-  46 1.90  21 1.90  38 1.90  17 1.90  50 3.09  67 3.09  91 3.09  83 3.09
                            59 3.09  58 3.09  95 3.10  70 3.10  87 3.10
  67  0.833  0.250  0.098-  22 1.90  21 1.90   5 1.90  18 1.90  59 3.09  66 3.09  90 3.09  74 3.09
                            50 3.09  51 3.09  71 3.10  70 3.10  54 3.10
  68  0.669  0.986  0.486-  19 1.89  85 2.72  93 2.79  52 2.84  60 2.93  96 3.00  73 3.12  65 3.14

  69  0.842  0.257  0.487-  20 1.90  76 2.72  53 2.98  92 3.03  56 3.04  72 3.11  52 3.12  73 3.14

  70  0.667  0.167  0.228-  24 1.89  16 1.89  23 1.89  21 1.90  95 3.09  87 3.09  54 3.09  71 3.09
                            63 3.09  62 3.09  73 3.10  65 3.10  72 3.10  66 3.10  67 3.10  59 3.10
  71  0.833  0.417  0.228-  23 1.89   7 1.89  48 1.89  22 1.90  63 3.09  70 3.09  94 3.09  78 3.09
                            54 3.09  55 3.09  72 3.10  56 3.10  97 3.10  67 3.10  90 3.10  74 3.10
  72  0.667  0.333  0.357-  43 1.89  20 1.89  12 1.89  23 1.90  56 3.09  73 3.09  97 3.09  89 3.09
                            64 3.09  65 3.09  71 3.10  63 3.10  70 3.10  92 3.11  69 3.11  61 3.13
  73  0.833  0.083  0.357-  20 1.89  19 1.89   3 1.89  24 1.90  52 3.02  65 3.09  72 3.09  96 3.09
                            80 3.09  56 3.09  57 3.09  70 3.10  54 3.10  95 3.10  68 3.12  69 3.14
  74  0.000  0.500  0.098-  29 1.90  22 1.90   6 1.90  25 1.90  82 3.09  90 3.09  75 3.09  51 3.09
                            67 3.09  91 3.09  78 3.10  71 3.10  55 3.10
  75  0.167  0.750  0.098-  30 1.90  37 1.90  29 1.90  26 1.90  83 3.09  82 3.09  58 3.09  50 3.09
                            74 3.09  91 3.09  79 3.10  86 3.10  78 3.10
  76  0.991  0.475  0.486-  27 1.91  69 2.72  53 2.85  92 2.92  56 2.94  97 3.14
  77  0.164  0.827  0.482-  49 1.66  28 1.99  52 2.48  60 2.49  80 2.88  88 2.90
  78  0.000  0.667  0.228-  32 1.89  48 1.89  31 1.89  29 1.90  86 3.09  94 3.09  79 3.09  55 3.09
                            71 3.09  95 3.09  81 3.10  97 3.10  80 3.10  74 3.10  91 3.10  75 3.10
  79  0.167  0.917  0.228-  39 1.89  31 1.89   8 1.89  30 1.90  87 3.09  86 3.09  62 3.09  54 3.09
                            78 3.09  95 3.09  88 3.10  80 3.10  57 3.10  75 3.10  58 3.10  50 3.10
  80  0.000  0.833  0.357-   3 1.89  28 1.89  44 1.89  31 1.90  77 2.88  52 3.04  57 3.09  88 3.09
                            96 3.09  73 3.09  81 3.09  97 3.09  79 3.10  95 3.10  78 3.10
  81  0.167  0.583  0.357-  28 1.89  35 1.89  27 1.89  32 1.90  89 3.09  88 3.09  64 3.09  56 3.09
                            80 3.09  97 3.09  86 3.10  78 3.10  55 3.10
  82  0.333  0.500  0.098-  37 1.90   6 1.90  14 1.90  33 1.90  74 3.09  51 3.09  75 3.09  59 3.09
                            83 3.09  90 3.09  86 3.10  55 3.10  63 3.10
  83  0.500  0.750  0.098-  38 1.90  37 1.90  45 1.90  34 1.90  75 3.09  91 3.09  58 3.09  82 3.09
                            90 3.09  66 3.09  87 3.10  86 3.10  94 3.10
  84  0.332  0.469  0.487-  35 1.93  61 2.76  53 2.78  64 2.92
  85  0.523  0.766  0.487-  36 1.92  93 2.69  68 2.72  60 2.89  96 2.95
  86  0.333  0.667  0.228-  32 1.89  40 1.89  39 1.89  37 1.90  78 3.09  55 3.09  79 3.09  63 3.09
                            94 3.09  87 3.09  81 3.10  89 3.10  88 3.10  82 3.10  75 3.10  83 3.10
  87  0.500  0.917  0.228-  16 1.89  39 1.89  47 1.89  38 1.90  62 3.09  70 3.09  95 3.09  79 3.09
                            94 3.09  86 3.09  65 3.10  88 3.10  96 3.10  66 3.10  58 3.10  83 3.10
  88  0.333  0.833  0.357-  11 1.89  28 1.89  36 1.89  39 1.90  77 2.90  60 3.04  57 3.09  65 3.09
                            80 3.09  81 3.09  89 3.09  96 3.09  79 3.10  87 3.10  86 3.10
  89  0.500  0.583  0.357-  36 1.89  35 1.89  43 1.89  40 1.90  81 3.09  97 3.09  64 3.09  88 3.09
                            96 3.09  72 3.09  86 3.10  94 3.10  63 3.10  92 3.15
  90  0.667  0.500  0.098-  45 1.90  22 1.90  14 1.90  41 1.90  74 3.09  67 3.09  91 3.09  83 3.09
                            59 3.09  82 3.09  94 3.10  71 3.10  63 3.10
  91  0.833  0.750  0.098-  45 1.90  46 1.90  29 1.90  42 1.90  83 3.09  66 3.09  90 3.09  50 3.09
                            74 3.09  75 3.09  94 3.10  95 3.10  78 3.10
  92  0.679  0.502  0.487-  43 1.90  76 2.92  93 3.01  69 3.03  97 3.03  72 3.11  89 3.15
  93  0.813  0.758  0.486-  44 1.90  85 2.69  68 2.79  52 2.91  96 2.97  92 3.01  97 3.14
  94  0.667  0.667  0.228-  48 1.89  40 1.89  47 1.89  45 1.90  78 3.09  71 3.09  63 3.09  86 3.09
                            95 3.09  87 3.09  97 3.10  89 3.10  96 3.10  90 3.10  91 3.10  83 3.10
  95  0.833  0.917  0.228-  47 1.89  31 1.89  24 1.89  46 1.90  70 3.09  54 3.09  87 3.09  79 3.09
                            94 3.09  78 3.09  96 3.10  80 3.10  73 3.10  66 3.10  50 3.10  91 3.10
  96  0.667  0.833  0.357-  19 1.89  44 1.89  36 1.89  47 1.90  85 2.95  93 2.97  68 3.00  65 3.09
                            80 3.09  73 3.09  97 3.09  89 3.09  88 3.09  95 3.10  87 3.10  94 3.10
  97  0.833  0.583  0.357-  44 1.89  43 1.89  27 1.89  48 1.90  92 3.03  89 3.09  72 3.09  96 3.09
                            80 3.09  56 3.09  81 3.09  94 3.10  78 3.10  71 3.10  76 3.14  93 3.14
  98  0.362  0.642  0.638-  49 2.66
 

IMPORTANT INFORMATION: All symmetrisations will be switched off!
NOSYMM: (Re-)initialisation of all symmetry stuff for point group C_1.


----------------------------------------------------------------------------------------

                                     Primitive cell                                     

  volume of cell :    1940.4575

  direct lattice vectors                    reciprocal lattice vectors
     9.284250000  0.000000000  0.000000000     0.107709293  0.000000000  0.000000000
     0.000000000 10.720530000  0.000000000     0.000000000  0.093278970  0.000000000
     0.000000000  0.000000000 19.495800000     0.000000000  0.000000000  0.051293099

  length of vectors
     9.284250000 10.720530000 19.495800000     0.107709293  0.093278970  0.051293099

  position of ions in fractional coordinates (direct lattice)
     0.000000000  0.000000000  0.000000000
     0.166667000  0.250000000  0.000000000
     0.000000000  0.000000000  0.389445000
     0.166667000  0.250000000  0.389445000
     0.000000000  0.166666000  0.130180000
     0.166667000  0.416666000  0.130180000
     0.000000000  0.333334000  0.259852000
     0.166667000  0.083333000  0.259852000
     0.333333000  0.000000000  0.000000000
     0.500000000  0.250000000  0.000000000
     0.333333000  0.000000000  0.389445000
     0.500000000  0.250000000  0.389445000
     0.333333000  0.166666000  0.130180000
     0.500000000  0.416666000  0.130180000
     0.333333000  0.333334000  0.259852000
     0.500000000  0.083333000  0.259852000
     0.666667000  0.000000000  0.000000000
     0.833333000  0.250000000  0.000000000
     0.666667000  0.000000000  0.389445000
     0.833333000  0.250000000  0.389445000
     0.666667000  0.166666000  0.130180000
     0.833333000  0.416666000  0.130180000
     0.666667000  0.333334000  0.259852000
     0.833333000  0.083334000  0.259852000
     0.000000000  0.500000000  0.000000000
     0.166667000  0.750000000  0.000000000
     0.000000000  0.500000000  0.389445000
     0.166667000  0.750000000  0.389445000
     0.000000000  0.666666000  0.130180000
     0.166667000  0.916666000  0.130180000
     0.000000000  0.833334000  0.259852000
     0.166667000  0.583334000  0.259852000
     0.333333000  0.500000000  0.000000000
     0.500000000  0.750000000  0.000000000
     0.333333000  0.500000000  0.389445000
     0.500000000  0.750000000  0.389445000
     0.333333000  0.666666000  0.130180000
     0.500000000  0.916667000  0.130180000
     0.333333000  0.833334000  0.259852000
     0.500000000  0.583334000  0.259852000
     0.666667000  0.500000000  0.000000000
     0.833333000  0.750000000  0.000000000
     0.666667000  0.500000000  0.389445000
     0.833333000  0.750000000  0.389445000
     0.666667000  0.666666000  0.130180000
     0.833333000  0.916667000  0.130180000
     0.666667000  0.833334000  0.259852000
     0.833333000  0.583334000  0.259852000
     0.170909447  0.734457650  0.550387691
     0.000000000  0.000000000  0.097624000
     0.166667000  0.250000000  0.097624000
     0.975097574  0.989754092  0.486510537
     0.162901989  0.254913513  0.486152001
     0.000000000  0.166666000  0.227532000
     0.166667000  0.416666000  0.227532000
     0.000000000  0.333334000  0.357207000
     0.166667000  0.083333000  0.357207000
     0.333333000  0.000000000  0.097624000
     0.500000000  0.250000000  0.097624000
     0.353983904  0.991790654  0.486101985
     0.491483463  0.251585726  0.486885502
     0.333333000  0.166666000  0.227532000
     0.500000000  0.416666000  0.227532000
     0.333333000  0.333334000  0.357207000
     0.500000000  0.083333000  0.357207000
     0.666667000  0.000000000  0.097624000
     0.833333000  0.250000000  0.097624000
     0.669006210  0.986300407  0.486339566
     0.841617018  0.257029063  0.486900907
     0.666667000  0.166666000  0.227532000
     0.833333000  0.416666000  0.227532000
     0.666667000  0.333334000  0.357207000
     0.833333000  0.083334000  0.357207000
     0.000000000  0.500000000  0.097624000
     0.166667000  0.750000000  0.097624000
     0.991333523  0.475280131  0.486336862
     0.164493045  0.827118726  0.482161576
     0.000000000  0.666666000  0.227532000
     0.166667000  0.916666000  0.227532000
     0.000000000  0.833334000  0.357207000
     0.166667000  0.583334000  0.357207000
     0.333333000  0.500000000  0.097624000
     0.500000000  0.750000000  0.097624000
     0.332229382  0.468895066  0.486932434
     0.523393116  0.765671293  0.486957986
     0.333333000  0.666666000  0.227532000
     0.500000000  0.916667000  0.227532000
     0.333333000  0.833334000  0.357207000
     0.500000000  0.583334000  0.357207000
     0.666667000  0.500000000  0.097624000
     0.833333000  0.750000000  0.097624000
     0.678856566  0.502241701  0.486914120
     0.812523519  0.758097902  0.486046103
     0.666667000  0.666666000  0.227532000
     0.833333000  0.916667000  0.227532000
     0.666667000  0.833334000  0.357207000
     0.833333000  0.583334000  0.357207000
     0.362216537  0.642199728  0.638294005

  ion indices of the primitive-cell ions
   primitive index   ion index
                 1           1
                 2           2
                 3           3
                 4           4
                 5           5
                 6           6
                 7           7
                 8           8
                 9           9
                10          10
                11          11
                12          12
                13          13
                14          14
                15          15
                16          16
                17          17
                18          18
                19          19
                20          20
                21          21
                22          22
                23          23
                24          24
                25          25
                26          26
                27          27
                28          28
                29          29
                30          30
                31          31
                32          32
                33          33
                34          34
                35          35
                36          36
                37          37
                38          38
                39          39
                40          40
                41          41
                42          42
                43          43
                44          44
                45          45
                46          46
                47          47
                48          48
                49          49
                50          50
                51          51
                52          52
                53          53
                54          54
                55          55
                56          56
                57          57
                58          58
                59          59
                60          60
                61          61
                62          62
                63          63
                64          64
                65          65
                66          66
                67          67
                68          68
                69          69
                70          70
                71          71
                72          72
                73          73
                74          74
                75          75
                76          76
                77          77
                78          78
                79          79
                80          80
                81          81
                82          82
                83          83
                84          84
                85          85
                86          86
                87          87
                88          88
                89          89
                90          90
                91          91
                92          92
                93          93
                94          94
                95          95
                96          96
                97          97
                98          98

----------------------------------------------------------------------------------------

 
 
 KPOINTS: K-Spacing Value to Generate K-Mesh: 0.03

Automatic generation of k-mesh.
 Grid dimensions read from file:
 generate k-points for:    4    3    1

 Generating k-lattice:

  Cartesian coordinates                     Fractional coordinates (reciprocal lattice)
     0.026927323  0.000000000  0.000000000     0.250000000  0.000000000  0.000000000
     0.000000000  0.031092990  0.000000000     0.000000000  0.333333333  0.000000000
     0.000000000  0.000000000  0.051293099     0.000000000  0.000000000  1.000000000

  Length of vectors
     0.026927323  0.031092990  0.051293099

  Shift w.r.t. Gamma in fractional coordinates (k-lattice)
     0.000000000  0.000000000  0.000000000

 
 Subroutine IBZKPT returns following result:
 ===========================================
 
 Found      7 irreducible k-points:
 
 Following reciprocal coordinates:
            Coordinates               Weight
  0.000000  0.000000  0.000000      1.000000
  0.250000  0.000000  0.000000      2.000000
  0.500000  0.000000  0.000000      1.000000
  0.000000  0.333333  0.000000      2.000000
  0.250000  0.333333  0.000000      2.000000
  0.250000 -0.333333  0.000000      2.000000
  0.500000  0.333333  0.000000      2.000000
 
 Following cartesian coordinates:
            Coordinates               Weight
  0.000000  0.000000  0.000000      1.000000
  0.026927  0.000000  0.000000      2.000000
  0.053855  0.000000  0.000000      1.000000
  0.000000  0.031093  0.000000      2.000000
  0.026927  0.031093  0.000000      2.000000
  0.026927 -0.031093  0.000000      2.000000
  0.053855  0.031093  0.000000      2.000000
 


--------------------------------------------------------------------------------------------------------




 Dimension of arrays:
   k-points           NKPTS =      7   k-points in BZ     NKDIM =      7   number of bands    NBANDS=    250
   number of dos      NEDOS =    301   number of ions     NIONS =     98
   non local maximal  LDIM  =      5   non local SUM 2l+1 LMDIM =     13
   total plane-waves  NPLWV = 840000
   max r-space proj   IRMAX =   4509   max aug-charges    IRDMAX=  20346
   dimension x,y,z NGX =    70 NGY =   80 NGZ =  150
   dimension x,y,z NGXF=   140 NGYF=  160 NGZF=  300
   support grid    NGXF=   140 NGYF=  160 NGZF=  300
   ions per type =              48   1  48   1
   NGX,Y,Z   is equivalent  to a cutoff of  12.53, 12.41, 12.79 a.u.
   NGXF,Y,Z  is equivalent  to a cutoff of  25.07, 24.81, 25.58 a.u.

 SYSTEM =  ni3al                                   
 POSCAR =  POSCAR                                  

 Startparameter for this run:
   NWRITE =      2    write-flag & timer
   PREC   = accura    normal or accurate (medium, high low for compatibility)
   ISTART =      0    job   : 0-new  1-cont  2-samecut
   ICHARG =      2    charge: 1-file 2-atom 10-const
   ISPIN  =      1    spin polarized calculation?
   LNONCOLLINEAR =      F non collinear calculations
   LSORBIT =      F    spin-orbit coupling
   INIWAV =      1    electr: 0-lowe 1-rand  2-diag
   LASPH  =      F    aspherical Exc in radial PAW
 Electronic Relaxation 1
   ENCUT  =  530.0 eV  38.95 Ry    6.24 a.u.  17.43 20.12 36.60*2*pi/ulx,y,z
   ENINI  =  530.0     initial cutoff
   ENAUG  =  644.9 eV  augmentation charge cutoff
   NELM   =    150;   NELMIN=  2; NELMDL= -5     # of ELM steps 
   EDIFF  = 0.1E-05   stopping-criterion for ELM
   LREAL  =      T    real-space projection
   NLSPLINE    = F    spline interpolate recip. space projectors
   LCOMPAT=      F    compatible to vasp.4.4
   GGA_COMPAT  = T    GGA compatible to vasp.4.4-vasp.4.6
   LMAXPAW     = -100 max onsite density
   LMAXMIX     =    4 max onsite mixed and CHGCAR
   VOSKOWN=      0    Vosko Wilk Nusair interpolation
   ROPT   =   -0.00025  -0.00025  -0.00025  -0.00025
 Ionic relaxation
   EDIFFG = -.1E-01   stopping-criterion for IOM
   NSW    =    300    number of steps for IOM
   NBLOCK =      1;   KBLOCK =    300    inner block; outer block 
   IBRION =      1    ionic relax: 0-MD 1-quasi-New 2-CG
   NFREE  =      0    steps in history (QN), initial steepest desc. (CG)
   ISIF   =      2    stress and relaxation
   IWAVPR =     11    prediction:  0-non 1-charg 2-wave 3-comb
   ISYM   =      0    0-nonsym 1-usesym 2-fastsym
   LCORR  =      T    Harris-Foulkes like correction to forces

   POTIM  = 0.5000    time-step for ionic-motion
   TEIN   =    0.0    initial temperature
   TEBEG  =    0.0;   TEEND  =   0.0 temperature during run
   SMASS  =  -3.00    Nose mass-parameter (am)
   estimated Nose-frequenzy (Omega)   =  0.10E-29 period in steps = 0.13E+47 mass=  -0.197E-26a.u.
   SCALEE = 1.0000    scale energy and forces
   NPACO  =    256;   APACO  = 10.0  distance and # of slots for P.C.
   PSTRESS=    0.0 pullay stress

  Mass of Ions in am
   POMASS =  12.01 19.00 28.09 39.10
  Ionic Valenz
   ZVAL   =   4.00  7.00  4.00  9.00
  Atomic Wigner-Seitz radii
   RWIGS  =  -1.00 -1.00 -1.00 -1.00
  virtual crystal weights 
   VCA    =   1.00  1.00  1.00  1.00
   NELECT =     400.0000    total number of electrons
   NUPDOWN=      -1.0000    fix difference up-down

 DOS related values:
   EMIN   =  10.00;   EMAX   =-10.00  energy-range for DOS
   EFERMI =   0.00
   ISMEAR =     0;   SIGMA  =   0.10  broadening in eV -4-tet -1-fermi 0-gaus

 Electronic relaxation 2 (details)
   IALGO  =     68    algorithm
   LDIAG  =      T    sub-space diagonalisation (order eigenvalues)
   LSUBROT=      F    optimize rotation matrix (better conditioning)
   TURBO    =      0    0=normal 1=particle mesh
   IRESTART =      0    0=no restart 2=restart with 2 vectors
   NREBOOT  =      0    no. of reboots
   NMIN     =      0    reboot dimension
   EREF     =   0.00    reference energy to select bands
   IMIX   =      4    mixing-type and parameters
     AMIX     =   0.40;   BMIX     =  1.00
     AMIX_MAG =   1.60;   BMIX_MAG =  1.00
     AMIN     =   0.01
     WC   =   100.;   INIMIX=   1;  MIXPRE=   1;  MAXMIX= -45

 Intra band minimization:
   WEIMIN = 0.0010     energy-eigenvalue tresh-hold
   EBREAK =  0.10E-08  absolut break condition
   DEPER  =   0.30     relativ break condition  

   TIME   =   0.40     timestep for ELM

  volume/ion in A,a.u.               =      19.80       133.62
  Fermi-wavevector in a.u.,A,eV,Ry     =   0.967075  1.827507 12.724629  0.935234
  Thomas-Fermi vector in A             =   2.096930
 
 Write flags
   LWAVE        =      F    write WAVECAR
   LDOWNSAMPLE  =      F    k-point downsampling of WAVECAR
   LCHARG       =      F    write CHGCAR
   LVTOT        =      F    write LOCPOT, total local potential
   LVHAR        =      F    write LOCPOT, Hartree potential only
   LELF         =      F    write electronic localiz. function (ELF)
   LORBIT       =      0    0 simple, 1 ext, 2 COOP (PROOUT), +10 PAW based schemes


 Dipole corrections
   LMONO  =      F    monopole corrections only (constant potential shift)
   LDIPOL =      F    correct potential (dipole corrections)
   IDIPOL =      0    1-x, 2-y, 3-z, 4-all directions 
   EPSILON=  1.0000000 bulk dielectric constant

 Exchange correlation treatment:
   GGA     =    --    GGA type
   LEXCH   =     8    internal setting for exchange type
   LIBXC   =     F    Libxc                    
   VOSKOWN =     0    Vosko Wilk Nusair interpolation
   LHFCALC =     F    Hartree Fock is set to
   LHFONE  =     F    Hartree Fock one center treatment
   AEXX    =    0.0000 exact exchange contribution

 Linear response parameters
   LEPSILON=     F    determine dielectric tensor
   LRPA    =     F    only Hartree local field effects (RPA)
   LNABLA  =     F    use nabla operator in PAW spheres
   LVEL    =     F    velocity operator in full k-point grid
   CSHIFT  =0.1000    complex shift for real part using Kramers Kronig
   OMEGAMAX=  -1.0    maximum frequency
   DEG_THRESHOLD= 0.2000000E-02 threshold for treating states as degnerate
   RTIME   =   -0.100 relaxation time in fs
  (WPLASMAI=    0.000 imaginary part of plasma frequency in eV, 0.658/RTIME)
   DFIELD  = 0.0000000 0.0000000 0.0000000 field for delta impulse in time
 
  Optional k-point grid parameters
   LKPOINTS_OPT  =     F    use optional k-point grid
   KPOINTS_OPT_MODE=     1    mode for optional k-point grid
 
 Orbital magnetization related:
   ORBITALMAG=     F  switch on orbital magnetization
   LCHIMAG   =     F  perturbation theory with respect to B field
   DQ        =  0.001000  dq finite difference perturbation B field
   LLRAUG    =     F  two centre corrections for induced B field



--------------------------------------------------------------------------------------------------------


 quasi-Newton-method for relaxation of ions
   using selective dynamics as specified on POSCAR
 charge density and potential will be updated during run
 non-spin polarized calculation
 RMM-DIIS sequential band-by-band and
  variant of blocked Davidson during initial phase
 perform sub-space diagonalisation
    before iterative eigenvector-optimisation
 modified Broyden-mixing scheme, WC =      100.0
 initial mixing is a Kerker type mixing with AMIX =  0.4000 and BMIX =      1.0000
 Hartree-type preconditioning will be used
 using additional bands           50
 real space projection scheme for non local part
 use partial core corrections
 calculate Harris-corrections to forces 
   (improved forces if not selfconsistent)
 use gradient corrections 
 use of overlap-Matrix (Vanderbilt PP)
 Gauss-broadening in eV      SIGMA  =   0.10


--------------------------------------------------------------------------------------------------------


  energy-cutoff  :      530.00
  volume of cell :     1940.46
      direct lattice vectors                 reciprocal lattice vectors
     9.284250000  0.000000000  0.000000000     0.107709293  0.000000000  0.000000000
     0.000000000 10.720530000  0.000000000     0.000000000  0.093278970  0.000000000
     0.000000000  0.000000000 19.495800000     0.000000000  0.000000000  0.051293099

  length of vectors
     9.284250000 10.720530000 19.495800000     0.107709293  0.093278970  0.051293099


 
 k-points in units of 2pi/SCALE and weight: K-Spacing Value to Generate K-Mesh: 0.03
   0.00000000  0.00000000  0.00000000       0.083
   0.02692732  0.00000000  0.00000000       0.167
   0.05385465  0.00000000  0.00000000       0.083
   0.00000000  0.03109299  0.00000000       0.167
   0.02692732  0.03109299  0.00000000       0.167
   0.02692732 -0.03109299  0.00000000       0.167
   0.05385465  0.03109299  0.00000000       0.167
 
 k-points in reciprocal lattice and weights: K-Spacing Value to Generate K-Mesh: 0.03
   0.00000000  0.00000000  0.00000000       0.083
   0.25000000  0.00000000  0.00000000       0.167
   0.50000000  0.00000000  0.00000000       0.083
   0.00000000  0.33333333  0.00000000       0.167
   0.25000000  0.33333333  0.00000000       0.167
   0.25000000 -0.33333333  0.00000000       0.167
   0.50000000  0.33333333  0.00000000       0.167
 
 position of ions in fractional coordinates (direct lattice) 
   0.00000000  0.00000000  0.00000000
   0.16666700  0.25000000  0.00000000
   0.00000000  0.00000000  0.38944500
   0.16666700  0.25000000  0.38944500
   0.00000000  0.16666600  0.13018000
   0.16666700  0.41666600  0.13018000
   0.00000000  0.33333400  0.25985200
   0.16666700  0.08333300  0.25985200
   0.33333300  0.00000000  0.00000000
   0.50000000  0.25000000  0.00000000
   0.33333300  0.00000000  0.38944500
   0.50000000  0.25000000  0.38944500
   0.33333300  0.16666600  0.13018000
   0.50000000  0.41666600  0.13018000
   0.33333300  0.33333400  0.25985200
   0.50000000  0.08333300  0.25985200
   0.66666700  0.00000000  0.00000000
   0.83333300  0.25000000  0.00000000
   0.66666700  0.00000000  0.38944500
   0.83333300  0.25000000  0.38944500
   0.66666700  0.16666600  0.13018000
   0.83333300  0.41666600  0.13018000
   0.66666700  0.33333400  0.25985200
   0.83333300  0.08333400  0.25985200
   0.00000000  0.50000000  0.00000000
   0.16666700  0.75000000  0.00000000
   0.00000000  0.50000000  0.38944500
   0.16666700  0.75000000  0.38944500
   0.00000000  0.66666600  0.13018000
   0.16666700  0.91666600  0.13018000
   0.00000000  0.83333400  0.25985200
   0.16666700  0.58333400  0.25985200
   0.33333300  0.50000000  0.00000000
   0.50000000  0.75000000  0.00000000
   0.33333300  0.50000000  0.38944500
   0.50000000  0.75000000  0.38944500
   0.33333300  0.66666600  0.13018000
   0.50000000  0.91666700  0.13018000
   0.33333300  0.83333400  0.25985200
   0.50000000  0.58333400  0.25985200
   0.66666700  0.50000000  0.00000000
   0.83333300  0.75000000  0.00000000
   0.66666700  0.50000000  0.38944500
   0.83333300  0.75000000  0.38944500
   0.66666700  0.66666600  0.13018000
   0.83333300  0.91666700  0.13018000
   0.66666700  0.83333400  0.25985200
   0.83333300  0.58333400  0.25985200
   0.17090945  0.73445765  0.55038769
   0.00000000  0.00000000  0.09762400
   0.16666700  0.25000000  0.09762400
   0.97509757  0.98975409  0.48651054
   0.16290199  0.25491351  0.48615200
   0.00000000  0.16666600  0.22753200
   0.16666700  0.41666600  0.22753200
   0.00000000  0.33333400  0.35720700
   0.16666700  0.08333300  0.35720700
   0.33333300  0.00000000  0.09762400
   0.50000000  0.25000000  0.09762400
   0.35398390  0.99179065  0.48610199
   0.49148346  0.25158573  0.48688550
   0.33333300  0.16666600  0.22753200
   0.50000000  0.41666600  0.22753200
   0.33333300  0.33333400  0.35720700
   0.50000000  0.08333300  0.35720700
   0.66666700  0.00000000  0.09762400
   0.83333300  0.25000000  0.09762400
   0.66900621  0.98630041  0.48633957
   0.84161702  0.25702906  0.48690091
   0.66666700  0.16666600  0.22753200
   0.83333300  0.41666600  0.22753200
   0.66666700  0.33333400  0.35720700
   0.83333300  0.08333400  0.35720700
   0.00000000  0.50000000  0.09762400
   0.16666700  0.75000000  0.09762400
   0.99133352  0.47528013  0.48633686
   0.16449305  0.82711873  0.48216158
   0.00000000  0.66666600  0.22753200
   0.16666700  0.91666600  0.22753200
   0.00000000  0.83333400  0.35720700
   0.16666700  0.58333400  0.35720700
   0.33333300  0.50000000  0.09762400
   0.50000000  0.75000000  0.09762400
   0.33222938  0.46889507  0.48693243
   0.52339312  0.76567129  0.48695799
   0.33333300  0.66666600  0.22753200
   0.50000000  0.91666700  0.22753200
   0.33333300  0.83333400  0.35720700
   0.50000000  0.58333400  0.35720700
   0.66666700  0.50000000  0.09762400
   0.83333300  0.75000000  0.09762400
   0.67885657  0.50224170  0.48691412
   0.81252352  0.75809790  0.48604610
   0.66666700  0.66666600  0.22753200
   0.83333300  0.91666700  0.22753200
   0.66666700  0.83333400  0.35720700
   0.83333300  0.58333400  0.35720700
   0.36221654  0.64219973  0.63829400
 
 position of ions in cartesian coordinates  (Angst):
   0.00000000  0.00000000  0.00000000
   1.54737809  2.68013250  0.00000000
   0.00000000  0.00000000  7.59254183
   1.54737809  2.68013250  7.59254183
   0.00000000  1.78674785  2.53796324
   1.54737809  4.46688035  2.53796324
   0.00000000  3.57351715  5.06602262
   1.54737809  0.89337393  5.06602262
   3.09474691  0.00000000  0.00000000
   4.64212500  2.68013250  0.00000000
   3.09474691  0.00000000  7.59254183
   4.64212500  2.68013250  7.59254183
   3.09474691  1.78674785  2.53796324
   4.64212500  4.46688035  2.53796324
   3.09474691  3.57351715  5.06602262
   4.64212500  0.89337393  5.06602262
   6.18950309  0.00000000  0.00000000
   7.73687191  2.68013250  0.00000000
   6.18950309  0.00000000  7.59254183
   7.73687191  2.68013250  7.59254183
   6.18950309  1.78674785  2.53796324
   7.73687191  4.46688035  2.53796324
   6.18950309  3.57351715  5.06602262
   7.73687191  0.89338465  5.06602262
   0.00000000  5.36026500  0.00000000
   1.54737809  8.04039750  0.00000000
   0.00000000  5.36026500  7.59254183
   1.54737809  8.04039750  7.59254183
   0.00000000  7.14701285  2.53796324
   1.54737809  9.82714535  2.53796324
   0.00000000  8.93378215  5.06602262
   1.54737809  6.25364965  5.06602262
   3.09474691  5.36026500  0.00000000
   4.64212500  8.04039750  0.00000000
   3.09474691  5.36026500  7.59254183
   4.64212500  8.04039750  7.59254183
   3.09474691  7.14701285  2.53796324
   4.64212500  9.82715607  2.53796324
   3.09474691  8.93378215  5.06602262
   4.64212500  6.25364965  5.06602262
   6.18950309  5.36026500  0.00000000
   7.73687191  8.04039750  0.00000000
   6.18950309  5.36026500  7.59254183
   7.73687191  8.04039750  7.59254183
   6.18950309  7.14701285  2.53796324
   7.73687191  9.82715607  2.53796324
   6.18950309  8.93378215  5.06602262
   7.73687191  6.25364965  5.06602262
   1.58676603  7.87377527 10.73024835
   0.00000000  0.00000000  1.90325798
   1.54737809  2.68013250  1.90325798
   9.05304965 10.61068843  9.48491213
   1.51242279  2.73280797  9.47792219
   0.00000000  1.78674785  4.43591837
   1.54737809  4.46688035  4.43591837
   0.00000000  3.57351715  6.96403623
   1.54737809  0.89337393  6.96403623
   3.09474691  0.00000000  1.90325798
   4.64212500  2.68013250  1.90325798
   3.28647507 10.63252146  9.47694709
   4.56305534  2.69713233  9.49222237
   3.09474691  1.78674785  4.43591837
   4.64212500  4.46688035  4.43591837
   3.09474691  3.57351715  6.96403623
   4.64212500  0.89337393  6.96403623
   6.18950309  0.00000000  1.90325798
   7.73687191  2.68013250  1.90325798
   6.21122090 10.57366310  9.48157891
   7.81378280  2.75548778  9.49252271
   6.18950309  1.78674785  4.43591837
   7.73687191  4.46688035  4.43591837
   6.18950309  3.57351715  6.96403623
   7.73687191  0.89338465  6.96403623
   0.00000000  5.36026500  1.90325798
   1.54737809  8.04039750  1.90325798
   9.20378826  5.09525490  9.48152619
   1.52719456  8.86715112  9.40012566
   0.00000000  7.14701285  4.43591837
   1.54737809  9.82714535  4.43591837
   0.00000000  8.93378215  6.96403623
   1.54737809  6.25364965  6.96403623
   3.09474691  5.36026500  1.90325798
   4.64212500  8.04039750  1.90325798
   3.08450064  5.02680362  9.49313734
   4.85931254  8.20840207  9.49363550
   3.09474691  7.14701285  4.43591837
   4.64212500  9.82715607  4.43591837
   3.09474691  8.93378215  6.96403623
   4.64212500  6.25364965  6.96403623
   6.18950309  5.36026500  1.90325798
   7.73687191  8.04039750  1.90325798
   6.30267407  5.38429723  9.49278030
   7.54367148  8.12721130  9.47585762
   6.18950309  7.14701285  4.43591837
   7.73687191  9.82715607  4.43591837
   6.18950309  8.93378215  6.96403623
   7.73687191  6.25364965  6.96403623
   3.36290888  6.88472145 12.44405226
 


--------------------------------------------------------------------------------------------------------


 k-point   1 :   0.0000 0.0000 0.0000  plane waves:   53799
 k-point   2 :   0.2500 0.0000 0.0000  plane waves:   53755
 k-point   3 :   0.5000 0.0000 0.0000  plane waves:   53770
 k-point   4 :   0.0000 0.3333 0.0000  plane waves:   53790
 k-point   5 :   0.2500 0.3333 0.0000  plane waves:   53786
 k-point   6 :   0.2500-0.3333 0.0000  plane waves:   53786
 k-point   7 :   0.5000 0.3333 0.0000  plane waves:   53718

 maximum and minimum number of plane-waves per node :     53799    53718

 maximum number of plane-waves:     53799
 maximum index in each direction: 
   IXMAX=   17   IYMAX=   20   IZMAX=   36
   IXMIN=  -17   IYMIN=  -20   IZMIN=  -36


 serial   3D FFT for wavefunctions
 parallel 3D FFT for charge:
    minimum data exchange during FFTs selected (reduces bandwidth)


 total amount of memory used by VASP MPI-rank0  1243183. kBytes
=======================================================================

   base      :      30000. kBytes
   nonlr-proj:      25559. kBytes
   fftplans  :     230088. kBytes
   grid      :     520038. kBytes
   one-center:        794. kBytes
   wavefun   :     436704. kBytes
 
     INWAV:  cpu time      0.0011: real time      0.0002
 Broyden mixing: mesh for mixing (old mesh)
   NGX = 35   NGY = 41   NGZ = 73
  (NGX  =140   NGY  =160   NGZ  =300)
  gives a total of 104755 points

 initial charge density was supplied:
 charge density of overlapping atoms calculated
 number of electron     400.0000000 magnetization 
 keeping initial charge density in first step


--------------------------------------------------------------------------------------------------------


 Maximum index for non-local projection operator         4328
 Maximum index for augmentation-charges        19558 (set IRDMAX)


--------------------------------------------------------------------------------------------------------


 First call to EWALD:  gamma=   0.142
 Maximum number of real-space cells 4x 3x 2
 Maximum number of reciprocal cells 2x 2x 4

    FEWALD:  cpu time      0.0214: real time      0.0107


--------------------------------------- Iteration      1(   1)  ---------------------------------------


    POTLOK:  cpu time      9.4105: real time      1.6176
    SETDIJ:  cpu time      0.5849: real time      0.0837
     EDDAV:  cpu time     43.2606: real time      6.2009
       DOS:  cpu time      0.0188: real time      0.0027
    --------------------------------------------
      LOOP:  cpu time     53.2753: real time      7.9049

 eigenvalue-minimisations  :  3500
 total energy-change (2. order) : 0.2141881E+04  (-0.1690700E+05)
 number of electron     400.0000000 magnetization 
 augmentation part      400.0000000 magnetization 

 Free energy of the ion-electron system (eV)
  ---------------------------------------------------
  alpha Z        PSCENC =       318.41319391
  Ewald energy   TEWEN  =     30859.83569397
  -Hartree energ DENC   =    -43918.40425514
  -exchange      EXHF   =         0.00000000
  -V(xc)+E(xc)   XCENC  =       283.02960146
  PAW double counting   =      4337.97084573    -3548.78544197
  entropy T*S    EENTRO =        -0.10800964
  eigenvalues    EBANDS =       365.38245014
  atomic energy  EATOM  =     13444.54662946
  Solvation  Ediel_sol  =         0.00000000
  ---------------------------------------------------
  free energy    TOTEN  =      2141.88070793 eV

  energy without entropy =     2141.98871756  energy(sigma->0) =     2141.93471274


--------------------------------------------------------------------------------------------------------




--------------------------------------- Iteration      1(   2)  ---------------------------------------


     EDDAV:  cpu time     51.8064: real time      7.4229
       DOS:  cpu time      0.0149: real time      0.0021
    --------------------------------------------
      LOOP:  cpu time     51.8211: real time      7.4250

 eigenvalue-minimisations  :  4416
 total energy-change (2. order) :-0.2532789E+04  (-0.2413722E+04)
 number of electron     400.0000000 magnetization 
 augmentation part      400.0000000 magnetization 

 Free energy of the ion-electron system (eV)
  ---------------------------------------------------
  alpha Z        PSCENC =       318.41319391
  Ewald energy   TEWEN  =     30859.83569397
  -Hartree energ DENC   =    -43918.40425514
  -exchange      EXHF   =         0.00000000
  -V(xc)+E(xc)   XCENC  =       283.02960146
  PAW double counting   =      4337.97084573    -3548.78544197
  entropy T*S    EENTRO =        -0.08151800
  eigenvalues    EBANDS =     -2167.43311131
  atomic energy  EATOM  =     13444.54662946
  Solvation  Ediel_sol  =         0.00000000
  ---------------------------------------------------
  free energy    TOTEN  =      -390.90836189 eV

  energy without entropy =     -390.82684389  energy(sigma->0) =     -390.86760289


--------------------------------------------------------------------------------------------------------




--------------------------------------- Iteration      1(   3)  ---------------------------------------


     EDDAV:  cpu time     53.2976: real time      7.6386
       DOS:  cpu time      0.0149: real time      0.0021
    --------------------------------------------
      LOOP:  cpu time     53.3124: real time      7.6407

 eigenvalue-minimisations  :  4536
 total energy-change (2. order) :-0.3147157E+03  (-0.3084233E+03)
 number of electron     400.0000000 magnetization 
 augmentation part      400.0000000 magnetization 

 Free energy of the ion-electron system (eV)
  ---------------------------------------------------
  alpha Z        PSCENC =       318.41319391
  Ewald energy   TEWEN  =     30859.83569397
  -Hartree energ DENC   =    -43918.40425514
  -exchange      EXHF   =         0.00000000
  -V(xc)+E(xc)   XCENC  =       283.02960146
  PAW double counting   =      4337.97084573    -3548.78544197
  entropy T*S    EENTRO =        -0.10085583
  eigenvalues    EBANDS =     -2482.12945644
  atomic energy  EATOM  =     13444.54662946
  Solvation  Ediel_sol  =         0.00000000
  ---------------------------------------------------
  free energy    TOTEN  =      -705.62404485 eV

  energy without entropy =     -705.52318903  energy(sigma->0) =     -705.57361694


--------------------------------------------------------------------------------------------------------




--------------------------------------- Iteration      1(   4)  ---------------------------------------


     EDDAV:  cpu time     54.6973: real time      7.8538
       DOS:  cpu time      0.0148: real time      0.0021
    --------------------------------------------
      LOOP:  cpu time     54.7122: real time      7.8559

 eigenvalue-minimisations  :  4712
 total energy-change (2. order) :-0.1747507E+02  (-0.1734832E+02)
 number of electron     400.0000000 magnetization 
 augmentation part      400.0000000 magnetization 

 Free energy of the ion-electron system (eV)
  ---------------------------------------------------
  alpha Z        PSCENC =       318.41319391
  Ewald energy   TEWEN  =     30859.83569397
  -Hartree energ DENC   =    -43918.40425514
  -exchange      EXHF   =         0.00000000
  -V(xc)+E(xc)   XCENC  =       283.02960146
  PAW double counting   =      4337.97084573    -3548.78544197
  entropy T*S    EENTRO =        -0.10927981
  eigenvalues    EBANDS =     -2499.59610734
  atomic energy  EATOM  =     13444.54662946
  Solvation  Ediel_sol  =         0.00000000
  ---------------------------------------------------
  free energy    TOTEN  =      -723.09911973 eV

  energy without entropy =     -722.98983992  energy(sigma->0) =     -723.04447983


--------------------------------------------------------------------------------------------------------




--------------------------------------- Iteration      1(   5)  ---------------------------------------


     EDDAV:  cpu time     56.1389: real time      8.0827
       DOS:  cpu time      0.0154: real time      0.0022
    CHARGE:  cpu time      1.9384: real time      0.4362
    MIXING:  cpu time      0.6225: real time      0.0892
    --------------------------------------------
      LOOP:  cpu time     58.7157: real time      8.6105

 eigenvalue-minimisations  :  4880
 total energy-change (2. order) :-0.7311507E+00  (-0.7299718E+00)
 number of electron     399.9999966 magnetization 
 augmentation part       -1.5835744 magnetization 

 Broyden mixing:
  rms(total) = 0.44764E+01    rms(broyden)= 0.44756E+01
  rms(prec ) = 0.52874E+01
  weight for this iteration     100.00

 Free energy of the ion-electron system (eV)
  ---------------------------------------------------
  alpha Z        PSCENC =       318.41319391
  Ewald energy   TEWEN  =     30859.83569397
  -Hartree energ DENC   =    -43918.40425514
  -exchange      EXHF   =         0.00000000
  -V(xc)+E(xc)   XCENC  =       283.02960146
  PAW double counting   =      4337.97084573    -3548.78544197
  entropy T*S    EENTRO =        -0.10971918
  eigenvalues    EBANDS =     -2500.32681870
  atomic energy  EATOM  =     13444.54662946
  Solvation  Ediel_sol  =         0.00000000
  ---------------------------------------------------
  free energy    TOTEN  =      -723.83027046 eV

  energy without entropy =     -723.72055128  energy(sigma->0) =     -723.77541087


--------------------------------------------------------------------------------------------------------




--------------------------------------- Iteration      1(   6)  ---------------------------------------


    POTLOK:  cpu time      9.3738: real time      1.5819
    SETDIJ:  cpu time      0.5869: real time      0.0840
    EDDIAG:  cpu time      3.2580: real time      0.6586
  RMM-DIIS:  cpu time      6.4440: real time      2.8042
    ORTHCH:  cpu time      0.1264: real time      0.0636
       DOS:  cpu time      0.0078: real time      0.0039
    CHARGE:  cpu time      1.5419: real time      0.4244
    MIXING:  cpu time      0.5596: real time      0.0802
    --------------------------------------------
      LOOP:  cpu time     21.8985: real time      5.7009

 eigenvalue-minimisations  :  3518
 total energy-change (2. order) : 0.7730294E+02  (-0.2385131E+02)
 number of electron     399.9999971 magnetization 
 augmentation part       -3.8851467 magnetization 

 Broyden mixing:
  rms(total) = 0.16134E+01    rms(broyden)= 0.16132E+01
  rms(prec ) = 0.19993E+01
  weight for this iteration     100.00

 eigenvalues of (default mixing * dielectric matrix)
  average eigenvalue GAMMA=   1.2306
  1.2306

 Free energy of the ion-electron system (eV)
  ---------------------------------------------------
  alpha Z        PSCENC =       318.41319391
  Ewald energy   TEWEN  =     30859.83569397
  -Hartree energ DENC   =    -44319.22328083
  -exchange      EXHF   =         0.00000000
  -V(xc)+E(xc)   XCENC  =       311.63800436
  PAW double counting   =      5090.48776878    -4307.60381153
  entropy T*S    EENTRO =        -0.11421588
  eigenvalues    EBANDS =     -2044.50731282
  atomic energy  EATOM  =     13444.54662946
  Solvation  Ediel_sol  =         0.00000000
  ---------------------------------------------------
  free energy    TOTEN  =      -646.52733059 eV

  energy without entropy =     -646.41311470  energy(sigma->0) =     -646.47022265


--------------------------------------------------------------------------------------------------------




--------------------------------------- Iteration      1(   7)  ---------------------------------------


    POTLOK:  cpu time      9.3886: real time      1.5842
    SETDIJ:  cpu time      0.5906: real time      0.0845
    EDDIAG:  cpu time      3.2399: real time      0.6551
  RMM-DIIS:  cpu time      6.6737: real time      2.9134
    ORTHCH:  cpu time      0.1265: real time      0.0636
       DOS:  cpu time      0.0075: real time      0.0038
    CHARGE:  cpu time      1.5358: real time      0.4244
    MIXING:  cpu time      0.5638: real time      0.0807
    --------------------------------------------
      LOOP:  cpu time     22.1264: real time      5.8097

 eigenvalue-minimisations  :  3704
 total energy-change (2. order) :-0.1424828E+01  (-0.8698482E+01)
 number of electron     399.9999973 magnetization 
 augmentation part       -4.3713660 magnetization 

 Broyden mixing:
  rms(total) = 0.10722E+01    rms(broyden)= 0.10719E+01
  rms(prec ) = 0.15367E+01
  weight for this iteration     100.00

 eigenvalues of (default mixing * dielectric matrix)
  average eigenvalue GAMMA=   0.9253
  1.1715  0.6790

 Free energy of the ion-electron system (eV)
  ---------------------------------------------------
  alpha Z        PSCENC =       318.41319391
  Ewald energy   TEWEN  =     30859.83569397
  -Hartree energ DENC   =    -44447.32401564
  -exchange      EXHF   =         0.00000000
  -V(xc)+E(xc)   XCENC  =       319.85481524
  PAW double counting   =      5345.52046582    -4564.75197616
  entropy T*S    EENTRO =        -0.09861583
  eigenvalues    EBANDS =     -1923.94834920
  atomic energy  EATOM  =     13444.54662946
  Solvation  Ediel_sol  =         0.00000000
  ---------------------------------------------------
  free energy    TOTEN  =      -647.95215843 eV

  energy without entropy =     -647.85354260  energy(sigma->0) =     -647.90285052


--------------------------------------------------------------------------------------------------------




--------------------------------------- Iteration      1(   8)  ---------------------------------------


    POTLOK:  cpu time      9.3830: real time      1.5833
    SETDIJ:  cpu time      0.5827: real time      0.0836
    EDDIAG:  cpu time      3.2707: real time      0.6563
  RMM-DIIS:  cpu time      6.8466: real time      3.0116
    ORTHCH:  cpu time      0.1264: real time      0.0636
       DOS:  cpu time      0.0073: real time      0.0037
    CHARGE:  cpu time      1.5413: real time      0.4265
    MIXING:  cpu time      0.5707: real time      0.0818
    --------------------------------------------
      LOOP:  cpu time     22.3287: real time      5.9104

 eigenvalue-minimisations  :  3751
 total energy-change (2. order) : 0.1359641E+01  (-0.1062201E+01)
 number of electron     399.9999973 magnetization 
 augmentation part       -4.8145023 magnetization 

 Broyden mixing:
  rms(total) = 0.72534E+00    rms(broyden)= 0.72531E+00
  rms(prec ) = 0.78874E+00
  weight for this iteration     100.00

 eigenvalues of (default mixing * dielectric matrix)
  average eigenvalue GAMMA=   1.4485
  2.1939  1.6221  0.5295

 Free energy of the ion-electron system (eV)
  ---------------------------------------------------
  alpha Z        PSCENC =       318.41319391
  Ewald energy   TEWEN  =     30859.83569397
  -Hartree energ DENC   =    -44475.31750930
  -exchange      EXHF   =         0.00000000
  -V(xc)+E(xc)   XCENC  =       322.46184209
  PAW double counting   =      5411.06825297    -4630.85757416
  entropy T*S    EENTRO =        -0.10973738
  eigenvalues    EBANDS =     -1896.63330922
  atomic energy  EATOM  =     13444.54662946
  Solvation  Ediel_sol  =         0.00000000
  ---------------------------------------------------
  free energy    TOTEN  =      -646.59251766 eV

  energy without entropy =     -646.48278028  energy(sigma->0) =     -646.53764897


--------------------------------------------------------------------------------------------------------




--------------------------------------- Iteration      1(   9)  ---------------------------------------


    POTLOK:  cpu time      9.3896: real time      1.5870
    SETDIJ:  cpu time      0.5855: real time      0.0838
    EDDIAG:  cpu time      3.3246: real time      0.6664
  RMM-DIIS:  cpu time      6.4554: real time      2.8342
    ORTHCH:  cpu time      0.1265: real time      0.0636
       DOS:  cpu time      0.0073: real time      0.0037
    CHARGE:  cpu time      1.5476: real time      0.4266
    MIXING:  cpu time      0.5833: real time      0.0836
    --------------------------------------------
      LOOP:  cpu time     22.0199: real time      5.7489

 eigenvalue-minimisations  :  3578
 total energy-change (2. order) : 0.3649213E+00  (-0.7901623E+00)
 number of electron     399.9999973 magnetization 
 augmentation part       -4.5117072 magnetization 

 Broyden mixing:
  rms(total) = 0.31772E+00    rms(broyden)= 0.31771E+00
  rms(prec ) = 0.44432E+00
  weight for this iteration     100.00

 eigenvalues of (default mixing * dielectric matrix)
  average eigenvalue GAMMA=   1.3038
  2.5271  1.0799  1.0799  0.5283

 Free energy of the ion-electron system (eV)
  ---------------------------------------------------
  alpha Z        PSCENC =       318.41319391
  Ewald energy   TEWEN  =     30859.83569397
  -Hartree energ DENC   =    -44461.60660782
  -exchange      EXHF   =         0.00000000
  -V(xc)+E(xc)   XCENC  =       322.22573102
  PAW double counting   =      5422.57586453    -4642.97022356
  entropy T*S    EENTRO =        -0.13077102
  eigenvalues    EBANDS =     -1909.11710684
  atomic energy  EATOM  =     13444.54662946
  Solvation  Ediel_sol  =         0.00000000
  ---------------------------------------------------
  free energy    TOTEN  =      -646.22759634 eV

  energy without entropy =     -646.09682532  energy(sigma->0) =     -646.16221083


--------------------------------------------------------------------------------------------------------




--------------------------------------- Iteration      1(  10)  ---------------------------------------


    POTLOK:  cpu time      9.3858: real time      1.5844
    SETDIJ:  cpu time      0.5992: real time      0.0858
    EDDIAG:  cpu time      3.2374: real time      0.6557
  RMM-DIIS:  cpu time      6.7757: real time      2.9877
    ORTHCH:  cpu time      0.1290: real time      0.0657
       DOS:  cpu time      0.0042: real time      0.0021
    CHARGE:  cpu time      1.5430: real time      0.4262
    MIXING:  cpu time      0.5934: real time      0.0852
    --------------------------------------------
      LOOP:  cpu time     22.2676: real time      5.8927

 eigenvalue-minimisations  :  3717
 total energy-change (2. order) : 0.5077173E+00  (-0.8025670E-01)
 number of electron     399.9999974 magnetization 
 augmentation part       -4.5497502 magnetization 

 Broyden mixing:
  rms(total) = 0.21530E+00    rms(broyden)= 0.21529E+00
  rms(prec ) = 0.29450E+00
  weight for this iteration     100.00

 eigenvalues of (default mixing * dielectric matrix)
  average eigenvalue GAMMA=   1.1310
  2.4945  1.0855  1.0855  0.5627  0.4264

 Free energy of the ion-electron system (eV)
  ---------------------------------------------------
  alpha Z        PSCENC =       318.41319391
  Ewald energy   TEWEN  =     30859.83569397
  -Hartree energ DENC   =    -44498.94015391
  -exchange      EXHF   =         0.00000000
  -V(xc)+E(xc)   XCENC  =       324.18190069
  PAW double counting   =      5470.22500507    -4690.82784288
  entropy T*S    EENTRO =        -0.12527970
  eigenvalues    EBANDS =     -1873.02902566
  atomic energy  EATOM  =     13444.54662946
  Solvation  Ediel_sol  =         0.00000000
  ---------------------------------------------------
  free energy    TOTEN  =      -645.71987906 eV

  energy without entropy =     -645.59459936  energy(sigma->0) =     -645.65723921


--------------------------------------------------------------------------------------------------------




--------------------------------------- Iteration      1(  11)  ---------------------------------------


    POTLOK:  cpu time      9.3897: real time      1.5864
    SETDIJ:  cpu time      0.8609: real time      0.1232
    EDDIAG:  cpu time      3.0540: real time      0.6541
  RMM-DIIS:  cpu time      7.6704: real time      3.4444
    ORTHCH:  cpu time      0.1289: real time      0.0657
       DOS:  cpu time      0.0041: real time      0.0020
    CHARGE:  cpu time      1.5492: real time      0.4269
    MIXING:  cpu time      0.6055: real time      0.0867
    --------------------------------------------
      LOOP:  cpu time     23.2628: real time      6.3893

 eigenvalue-minimisations  :  4350
 total energy-change (2. order) : 0.1201210E+00  (-0.4602050E-01)
 number of electron     399.9999974 magnetization 
 augmentation part       -4.5957093 magnetization 

 Broyden mixing:
  rms(total) = 0.12990E+00    rms(broyden)= 0.12989E+00
  rms(prec ) = 0.19866E+00
  weight for this iteration     100.00

 eigenvalues of (default mixing * dielectric matrix)
  average eigenvalue GAMMA=   1.1230
  2.3138  1.3146  1.3146  0.9448  0.5129  0.3373

 Free energy of the ion-electron system (eV)
  ---------------------------------------------------
  alpha Z        PSCENC =       318.41319391
  Ewald energy   TEWEN  =     30859.83569397
  -Hartree energ DENC   =    -44511.87835594
  -exchange      EXHF   =         0.00000000
  -V(xc)+E(xc)   XCENC  =       324.69539999
  PAW double counting   =      5480.70525893    -4701.30935447
  entropy T*S    EENTRO =        -0.12387241
  eigenvalues    EBANDS =     -1860.48435147
  atomic energy  EATOM  =     13444.54662946
  Solvation  Ediel_sol  =         0.00000000
  ---------------------------------------------------
  free energy    TOTEN  =      -645.59975804 eV

  energy without entropy =     -645.47588563  energy(sigma->0) =     -645.53782183


--------------------------------------------------------------------------------------------------------




--------------------------------------- Iteration      1(  12)  ---------------------------------------


    POTLOK:  cpu time      9.4044: real time      1.5882
    SETDIJ:  cpu time      0.5871: real time      0.0840
    EDDIAG:  cpu time      3.2497: real time      0.6564
  RMM-DIIS:  cpu time      7.1309: real time      3.1612
    ORTHCH:  cpu time      0.1265: real time      0.0636
       DOS:  cpu time      0.0063: real time      0.0032
    CHARGE:  cpu time      1.5473: real time      0.4275
    MIXING:  cpu time      0.6178: real time      0.0886
    --------------------------------------------
      LOOP:  cpu time     22.6699: real time      6.0728

 eigenvalue-minimisations  :  4049
 total energy-change (2. order) : 0.3131727E-01  (-0.9982000E-01)
 number of electron     399.9999974 magnetization 
 augmentation part       -4.7113945 magnetization 

 Broyden mixing:
  rms(total) = 0.10173E+00    rms(broyden)= 0.10172E+00
  rms(prec ) = 0.14888E+00
  weight for this iteration     100.00

 eigenvalues of (default mixing * dielectric matrix)
  average eigenvalue GAMMA=   1.1781
  2.1318  2.1318  1.1141  1.1141  0.9029  0.5198  0.3321

 Free energy of the ion-electron system (eV)
  ---------------------------------------------------
  alpha Z        PSCENC =       318.41319391
  Ewald energy   TEWEN  =     30859.83569397
  -Hartree energ DENC   =    -44538.04238087
  -exchange      EXHF   =         0.00000000
  -V(xc)+E(xc)   XCENC  =       325.45825779
  PAW double counting   =      5491.98949981    -4712.49570386
  entropy T*S    EENTRO =        -0.12228002
  eigenvalues    EBANDS =     -1835.15135096
  atomic energy  EATOM  =     13444.54662946
  Solvation  Ediel_sol  =         0.00000000
  ---------------------------------------------------
  free energy    TOTEN  =      -645.56844077 eV

  energy without entropy =     -645.44616075  energy(sigma->0) =     -645.50730076


[...]
      1.54738      8.04040      0.00000         0.002958     -0.007656     -0.199812
      0.00000      5.36027      7.59254        -0.014551     -0.262969      0.088297
      1.54738      8.04040      7.59254        -0.005664      0.879089      1.205753
      0.00000      7.14701      2.53796         0.008886     -0.018682      0.077103
      1.54738      9.82715      2.53796        -0.001278     -0.001653      0.071045
      0.00000      8.93378      5.06602         0.049760     -0.051517      0.092565
      1.54738      6.25365      5.06602         0.022729      0.166841      0.260007
      3.09475      5.36027      0.00000        -0.000958     -0.002804     -0.189280
      4.64213      8.04040      0.00000        -0.000246     -0.009091     -0.196578
      3.09475      5.36027      7.59254        -0.055586     -0.458185      0.446967
      4.64213      8.04040      7.59254         0.211577      0.186615      0.141284
      3.09475      7.14701      2.53796        -0.001112     -0.014719      0.084935
      4.64213      9.82716      2.53796        -0.014072     -0.010739      0.041815
      3.09475      8.93378      5.06602        -0.039187     -0.056531      0.103083
      4.64213      6.25365      5.06602        -0.044466     -0.003771      0.161478
      6.18950      5.36027      0.00000        -0.003022     -0.005271     -0.175297
      7.73687      8.04040      0.00000        -0.003315     -0.005904     -0.198555
      6.18950      5.36027      7.59254         0.147682      0.048895      0.193956
      7.73687      8.04040      7.59254        -0.188025      0.061800     -0.171642
      6.18950      7.14701      2.53796        -0.006858     -0.010172      0.063721
      7.73687      9.82716      2.53796         0.015931     -0.004921      0.040874
      6.18950      8.93378      5.06602        -0.000261      0.034557     -0.057189
      7.73687      6.25365      5.06602         0.033876      0.000097      0.079570
      1.58317      7.87589     10.72808        -0.003748     -0.006274      0.008427
      0.00000      0.00000      1.90326         0.004282      0.002913      0.142724
      1.54738      2.68013      1.90326        -0.001532      0.001368      0.148714
      9.05324     10.60276      9.48447         0.000323      0.003339     -0.000410
      1.50964      2.73203      9.47768        -0.001568      0.002680     -0.000112
      0.00000      1.78675      4.43592        -0.038411      0.007574     -0.084284
      1.54738      4.46688      4.43592        -0.010096     -0.102666     -0.075448
      0.00000      3.57352      6.96404         0.003290     -0.017648     -0.378148
      1.54738      0.89337      6.96404        -0.019697      0.066051      0.143070
      3.09475      0.00000      1.90326        -0.007117      0.006673      0.136450
      4.64213      2.68013      1.90326         0.004432      0.002958      0.150683
      3.28997     10.63400      9.47823         0.000417     -0.002142     -0.000788
      4.55966      2.69630      9.49210        -0.000885     -0.003474      0.001125
      3.09475      1.78675      4.43592         0.034017      0.003872     -0.094228
      4.64213      4.46688      4.43592        -0.021838     -0.033761     -0.099075
      3.09475      3.57352      6.96404        -0.061092     -0.033160     -0.357941
      4.64213      0.89337      6.96404         0.062785     -0.051542     -0.294175
      6.18950      0.00000      1.90326         0.004056      0.006428      0.156877
      7.73687      2.68013      1.90326        -0.004558      0.004646      0.146697
      6.20362     10.56762      9.48298         0.002942      0.002762      0.000944
      7.81404      2.75754      9.49284         0.000399     -0.000348      0.000454
      6.18950      1.78675      4.43592         0.003974     -0.041877     -0.097793
      7.73687      4.46688      4.43592         0.032184     -0.001705     -0.085511
      6.18950      3.57352      6.96404         0.055824     -0.007518     -0.044415
      7.73687      0.89338      6.96404        -0.057172     -0.016501     -0.268791
      0.00000      5.36027      1.90326        -0.013067      0.004719      0.142898
      1.54738      8.04040      1.90326         0.000610      0.014194      0.137349
      9.20436      5.09440      9.48037         0.001574     -0.000706     -0.001310
      1.52973      8.86756      9.39976        -0.001545     -0.000695      0.001250
      0.00000      7.14701      4.43592        -0.059446      0.039596     -0.134583
      1.54738      9.82715      4.43592        -0.006836     -0.013489     -0.114206
      0.00000      8.93378      6.96404        -0.355696      0.068891     -0.455602
      1.54738      6.25365      6.96404        -0.056630     -0.256909      0.638374
      3.09475      5.36027      1.90326         0.011247      0.007179      0.122825
      4.64213      8.04040      1.90326         0.004085      0.012156      0.145157
      3.08382      5.02645      9.49441        -0.004905      0.000024      0.000016
      4.85644      8.20654      9.49017        -0.000869      0.002078     -0.001049
      3.09475      7.14701      4.43592         0.027984      0.045493     -0.148273
      4.64213      9.82716      4.43592         0.057012     -0.001538     -0.072616
      3.09475      8.93378      6.96404         0.320276      0.095392     -0.398872
      4.64213      6.25365      6.96404         0.085837      0.010472      0.239129
      6.18950      5.36027      1.90326         0.001758      0.000319      0.124107
      7.73687      8.04040      1.90326        -0.004547      0.011743      0.152103
      6.31540      5.38458      9.49302         0.000469      0.001635      0.001293
      7.54252      8.12478      9.47687        -0.002820     -0.000213     -0.000503
      6.18950      7.14701      4.43592         0.031151      0.068506     -0.075403
      7.73687      9.82716      4.43592        -0.051350     -0.004271     -0.070593
      6.18950      8.93378      6.96404         0.019278     -0.012116     -0.538128
      7.73687      6.25365      6.96404        -0.021340      0.010954     -0.099528
      3.36808      6.88712     12.44298        -0.012338     -0.012893      0.005762
 -----------------------------------------------------------------------------------
    total drift:                               -0.005477      0.028935      0.017210


--------------------------------------------------------------------------------------------------------



  FREE ENERGIE OF THE ION-ELECTRON SYSTEM (eV)
  ---------------------------------------------------
  free  energy   TOTEN  =      -645.47332766 eV

  energy  without entropy=     -645.35451137  energy(sigma->0) =     -645.41391952
 
 d Force =-0.8399051E-04[-0.929E-04,-0.751E-04]  d Energy =-0.9576119E-04 0.118E-04
 d Force =-0.1173448E+01[-0.117E+01,-0.117E+01]  d Ewald  =-0.1173448E+01-0.950E-07


--------------------------------------------------------------------------------------------------------


    POTLOK:  cpu time     10.1269: real time      1.6945


--------------------------------------------------------------------------------------------------------


 stress matrix after NEB project (eV)
    -40.10792      0.28872     -0.12048
      0.28872    -42.20085     -0.02274
     -0.12048     -0.02274      1.90607
  FORCES: max atom, RMS     0.018752    0.002446
  FORCE total and by dimension    0.024218    0.012893
  Stress total and by dimension   58.252780   42.200845
 Quasi-Newton relaxation of ions (Broydens 2nd method)
  g(Force)  = 0.283E-04   g(Stress)= 0.000E+00

 retain information from N=  1 steps
 eigenvalues of (default step * inverse Hessian matrix)
  average eigenvalue of G=  15.7815
 eigenvalue spectrum of G is 15.7815


--------------------------------------------------------------------------------------------------------


    WAVPRE:  cpu time      7.0249: real time      1.6408
    FEWALD:  cpu time      0.0641: real time      0.0093
    ORTHCH:  cpu time      2.0114: real time      0.6076
     LOOP+:  cpu time    312.3324: real time     69.6569


--------------------------------------- Iteration     25(   1)  ---------------------------------------


    POTLOK:  cpu time      9.4854: real time      1.6067
    SETDIJ:  cpu time      0.5851: real time      0.0838
     EDDAV:  cpu time     45.8013: real time      6.5657
       DOS:  cpu time      0.0146: real time      0.0021
    CHARGE:  cpu time      2.1463: real time      0.4265
    MIXING:  cpu time      0.5692: real time      0.0813
    --------------------------------------------
      LOOP:  cpu time     58.6028: real time      8.7662

 eigenvalue-minimisations  :  3710
 total energy-change (2. order) : 0.5536142E-03  (-0.3739163E-01)
 number of electron     399.9999976 magnetization 
 augmentation part       -4.6809261 magnetization 

 Broyden mixing:
  rms(total) = 0.79905E-02    rms(broyden)= 0.79887E-02
  rms(prec ) = 0.84048E-02
  weight for this iteration     100.00

 Free energy of the ion-electron system (eV)
  ---------------------------------------------------
  alpha Z        PSCENC =       318.41319391
  Ewald energy   TEWEN  =     30859.45755410
  -Hartree energ DENC   =    -44629.16747587
  -exchange      EXHF   =         0.00000000
  -V(xc)+E(xc)   XCENC  =       325.52539089
  PAW double counting   =      5473.56450503    -4693.76493086
  entropy T*S    EENTRO =        -0.11891077
  eigenvalues    EBANDS =     -1743.92872956
  atomic energy  EATOM  =     13444.54662946
  Solvation  Ediel_sol  =         0.00000000
  ---------------------------------------------------
  free energy    TOTEN  =      -645.47277368 eV

  energy without entropy =     -645.35386291  energy(sigma->0) =     -645.41331829


--------------------------------------------------------------------------------------------------------




--------------------------------------- Iteration     25(   2)  ---------------------------------------


    POTLOK:  cpu time      9.3762: real time      1.5815
    SETDIJ:  cpu time      0.7077: real time      0.1011
    EDDIAG:  cpu time      3.1782: real time      0.6596
  RMM-DIIS:  cpu time      6.4441: real time      2.8257
    ORTHCH:  cpu time      0.1283: real time      0.0652
       DOS:  cpu time      0.0039: real time      0.0019
    CHARGE:  cpu time      1.5631: real time      0.4299
    MIXING:  cpu time      0.5814: real time      0.0831
    --------------------------------------------
      LOOP:  cpu time     21.9829: real time      5.7481

 eigenvalue-minimisations  :  3551
 total energy-change (2. order) :-0.6057922E-03  (-0.6637815E-03)
 number of electron     399.9999976 magnetization 
 augmentation part       -4.6813520 magnetization 

 Broyden mixing:
  rms(total) = 0.28104E-02    rms(broyden)= 0.28100E-02
  rms(prec ) = 0.29977E-02
  weight for this iteration     100.00

 eigenvalues of (default mixing * dielectric matrix)
  average eigenvalue GAMMA=   1.2075
  1.2075

 Free energy of the ion-electron system (eV)
  ---------------------------------------------------
  alpha Z        PSCENC =       318.41319391
  Ewald energy   TEWEN  =     30859.45755410
  -Hartree energ DENC   =    -44629.17859512
  -exchange      EXHF   =         0.00000000
  -V(xc)+E(xc)   XCENC  =       325.52549422
  PAW double counting   =      5473.55228329    -4693.75376630
  entropy T*S    EENTRO =        -0.11878567
  eigenvalues    EBANDS =     -1743.91738735
  atomic energy  EATOM  =     13444.54662946
  Solvation  Ediel_sol  =         0.00000000
  ---------------------------------------------------
  free energy    TOTEN  =      -645.47337947 eV

  energy without entropy =     -645.35459380  energy(sigma->0) =     -645.41398663


--------------------------------------------------------------------------------------------------------




--------------------------------------- Iteration     25(   3)  ---------------------------------------


    POTLOK:  cpu time      9.3779: real time      1.5825
    SETDIJ:  cpu time      0.5910: real time      0.0844
    EDDIAG:  cpu time      3.4439: real time      0.6864
  RMM-DIIS:  cpu time      7.5938: real time      3.4696
    ORTHCH:  cpu time      0.1357: real time      0.0725
       DOS:  cpu time      0.0041: real time      0.0020
    CHARGE:  cpu time      1.5525: real time      0.4280
    MIXING:  cpu time      0.6090: real time      0.0870
    --------------------------------------------
      LOOP:  cpu time     23.3079: real time      6.4125

 eigenvalue-minimisations  :  4329
 total energy-change (2. order) :-0.9700244E-04  (-0.8102263E-04)
 number of electron     399.9999976 magnetization 
 augmentation part       -4.6809908 magnetization 

 Broyden mixing:
  rms(total) = 0.19061E-02    rms(broyden)= 0.19059E-02
  rms(prec ) = 0.21614E-02
  weight for this iteration     100.00

 eigenvalues of (default mixing * dielectric matrix)
  average eigenvalue GAMMA=   1.2375
  1.2375  1.2375

 Free energy of the ion-electron system (eV)
  ---------------------------------------------------
  alpha Z        PSCENC =       318.41319391
  Ewald energy   TEWEN  =     30859.45755410
  -Hartree energ DENC   =    -44629.17323047
  -exchange      EXHF   =         0.00000000
  -V(xc)+E(xc)   XCENC  =       325.52404485
  PAW double counting   =      5473.51549690    -4693.71719258
  entropy T*S    EENTRO =        -0.11888268
  eigenvalues    EBANDS =     -1743.92108995
  atomic energy  EATOM  =     13444.54662946
  Solvation  Ediel_sol  =         0.00000000
  ---------------------------------------------------
  free energy    TOTEN  =      -645.47347647 eV

  energy without entropy =     -645.35459379  energy(sigma->0) =     -645.41403513


--------------------------------------------------------------------------------------------------------




--------------------------------------- Iteration     25(   4)  ---------------------------------------


    POTLOK:  cpu time      9.3936: real time      1.5841
    SETDIJ:  cpu time      0.6071: real time      0.0872
    EDDIAG:  cpu time      3.2273: real time      0.6568
  RMM-DIIS:  cpu time      7.4874: real time      3.3184
    ORTHCH:  cpu time      0.1265: real time      0.0636
       DOS:  cpu time      0.0064: real time      0.0032
    CHARGE:  cpu time      1.5474: real time      0.4270
    MIXING:  cpu time      0.6011: real time      0.0864
    --------------------------------------------
      LOOP:  cpu time     22.9967: real time      6.2266

 eigenvalue-minimisations  :  3987
 total energy-change (2. order) :-0.1527590E-04  (-0.9432705E-05)
 number of electron     399.9999976 magnetization 
 augmentation part       -4.6813124 magnetization 

 Broyden mixing:
  rms(total) = 0.13221E-02    rms(broyden)= 0.13220E-02
  rms(prec ) = 0.14815E-02
  weight for this iteration     100.00

 eigenvalues of (default mixing * dielectric matrix)
  average eigenvalue GAMMA=   1.3248
  1.7030  1.7030  0.5686

 Free energy of the ion-electron system (eV)
  ---------------------------------------------------
  alpha Z        PSCENC =       318.41319391
  Ewald energy   TEWEN  =     30859.45755410
  -Hartree energ DENC   =    -44629.18946247
  -exchange      EXHF   =         0.00000000
  -V(xc)+E(xc)   XCENC  =       325.52512418
  PAW double counting   =      5473.53124271    -4693.73294663
  entropy T*S    EENTRO =        -0.11880555
  eigenvalues    EBANDS =     -1743.90602145
  atomic energy  EATOM  =     13444.54662946
  Solvation  Ediel_sol  =         0.00000000
  ---------------------------------------------------
  free energy    TOTEN  =      -645.47349175 eV

  energy without entropy =     -645.35468620  energy(sigma->0) =     -645.41408897


--------------------------------------------------------------------------------------------------------




--------------------------------------- Iteration     25(   5)  ---------------------------------------


    POTLOK:  cpu time      9.4300: real time      1.5957
    SETDIJ:  cpu time      0.5800: real time      0.0834
    EDDIAG:  cpu time      3.2444: real time      0.6571
  RMM-DIIS:  cpu time      5.6225: real time      2.3982
    ORTHCH:  cpu time      0.1282: real time      0.0652
       DOS:  cpu time      0.0041: real time      0.0021
    CHARGE:  cpu time      1.5473: real time      0.4278
    MIXING:  cpu time      0.6139: real time      0.0883
    --------------------------------------------
      LOOP:  cpu time     21.1704: real time      5.3178

 eigenvalue-minimisations  :  2906
 total energy-change (2. order) :-0.2606159E-04  (-0.8099390E-05)
 number of electron     399.9999976 magnetization 
 augmentation part       -4.6812495 magnetization 

 Broyden mixing:
  rms(total) = 0.84579E-03    rms(broyden)= 0.84574E-03
  rms(prec ) = 0.10416E-02
  weight for this iteration     100.00

 eigenvalues of (default mixing * dielectric matrix)
  average eigenvalue GAMMA=   1.1114
  1.7194  1.7194  0.6051  0.4015

 Free energy of the ion-electron system (eV)
  ---------------------------------------------------
  alpha Z        PSCENC =       318.41319391
  Ewald energy   TEWEN  =     30859.45755410
  -Hartree energ DENC   =    -44629.19892834
  -exchange      EXHF   =         0.00000000
  -V(xc)+E(xc)   XCENC  =       325.52499385
  PAW double counting   =      5473.52362281    -4693.72516728
  entropy T*S    EENTRO =        -0.11883659
  eigenvalues    EBANDS =     -1743.89657973
  atomic energy  EATOM  =     13444.54662946
  Solvation  Ediel_sol  =         0.00000000
  ---------------------------------------------------
  free energy    TOTEN  =      -645.47351781 eV

  energy without entropy =     -645.35468122  energy(sigma->0) =     -645.41409952


--------------------------------------------------------------------------------------------------------




--------------------------------------- Iteration     25(   6)  ---------------------------------------


    POTLOK:  cpu time      9.4170: real time      1.5886
    SETDIJ:  cpu time      0.6475: real time      0.0925
    EDDIAG:  cpu time      3.2108: real time      0.6555
  RMM-DIIS:  cpu time      4.7629: real time      1.9756
    ORTHCH:  cpu time      0.1282: real time      0.0652
       DOS:  cpu time      0.0041: real time      0.0020
    CHARGE:  cpu time      1.5508: real time      0.4286
    MIXING:  cpu time      0.6272: real time      0.0897
    --------------------------------------------
      LOOP:  cpu time     20.3484: real time      4.8977

 eigenvalue-minimisations  :  2388
 total energy-change (2. order) :-0.6408067E-05  (-0.3084515E-05)
 number of electron     399.9999976 magnetization 
 augmentation part       -4.6812495 magnetization 

 Broyden mixing:
  rms(total) = 0.45064E-03    rms(broyden)= 0.45059E-03
  rms(prec ) = 0.52245E-03
  weight for this iteration     100.00

 eigenvalues of (default mixing * dielectric matrix)
  average eigenvalue GAMMA=   0.9750
  1.6415  1.6415  0.6203  0.6203  0.3516

 Free energy of the ion-electron system (eV)
  ---------------------------------------------------
  alpha Z        PSCENC =       318.41319391
  Ewald energy   TEWEN  =     30859.45755410
  -Hartree energ DENC   =    -44629.20106143
  -exchange      EXHF   =         0.00000000
  -V(xc)+E(xc)   XCENC  =       325.52492402
  PAW double counting   =      5473.52000545    -4693.72148596
  entropy T*S    EENTRO =        -0.11883608
  eigenvalues    EBANDS =     -1743.89444767
  atomic energy  EATOM  =     13444.54662946
  Solvation  Ediel_sol  =         0.00000000
  ---------------------------------------------------
  free energy    TOTEN  =      -645.47352422 eV

  energy without entropy =     -645.35468814  energy(sigma->0) =     -645.41410618


--------------------------------------------------------------------------------------------------------




--------------------------------------- Iteration     25(   7)  ---------------------------------------


