srun: ROUTE: split_hostlist: hl=b01r3n18 tree_width 0
 running on    4 total cores
 distrk:  each k-point on    1 cores,    4 groups
 distr:  one band on    1 cores,    1 groups
 HIP runtime initialized ...    4 DCUs will be used
 Created    4 streams on each DCU
 vasp.6.3.2 27Jun22 (build Mar 15 2023 15:45:48) complex                        
  
 POSCAR found type information on POSCAR C F SiK 
 POSCAR found :  4 types and      98 ions
 Reading from existing POTCAR
 scaLAPACK will be used selectively (only on CPU)
 Reading from existing POTCAR
 LDA part: xc-table for Pade appr. of Perdew
 POSCAR found type information on POSCAR C F SiK 
 POSCAR found :  4 types and      98 ions
 Optimize memory usage for KPAR
 POSCAR, INCAR and KPOINTS ok, starting setup
 FFT: planning ... GRIDC
 FFT: planning ... GRID_SOFT
 FFT: planning ... GRID
 WAVECAR not read
 entering main loop
       N       E                     dE             d eps       ncg     rms          rms(c)
DAV:   1     0.214188070792E+04    0.21419E+04   -0.16907E+05  3500   0.137E+03
DAV:   2    -0.390908361894E+03   -0.25328E+04   -0.24137E+04  4416   0.269E+02
DAV:   3    -0.705624044852E+03   -0.31472E+03   -0.30842E+03  4536   0.887E+01
DAV:   4    -0.723099119730E+03   -0.17475E+02   -0.17348E+02  4712   0.221E+01
DAV:   5    -0.723830270458E+03   -0.73115E+00   -0.72997E+00  4880   0.413E+00    0.448E+01
RMM:   6    -0.646527330587E+03    0.77303E+02   -0.23851E+02  3518   0.207E+01    0.161E+01
RMM:   7    -0.647952158435E+03   -0.14248E+01   -0.86985E+01  3704   0.136E+01    0.107E+01
RMM:   8    -0.646592517657E+03    0.13596E+01   -0.10622E+01  3751   0.537E+00    0.725E+00
RMM:   9    -0.646227596339E+03    0.36492E+00   -0.79016E+00  3578   0.422E+00    0.318E+00
RMM:  10    -0.645719931517E+03    0.50766E+00   -0.80309E-01  3716   0.165E+00    0.215E+00
RMM:  11    -0.645599765455E+03    0.12017E+00   -0.46019E-01  4350   0.912E-01    0.130E+00
RMM:  12    -0.645568455164E+03    0.31310E-01   -0.99814E-01  4049   0.130E+00    0.102E+00
RMM:  13    -0.645493889696E+03    0.74565E-01   -0.14676E-01  3655   0.610E-01    0.608E-01
RMM:  14    -0.645475424134E+03    0.18466E-01   -0.83465E-02  4183   0.408E-01    0.362E-01
RMM:  15    -0.645455698260E+03    0.19726E-01   -0.47200E-02  4773   0.246E-01    0.259E-01
RMM:  16    -0.645458493833E+03   -0.27956E-02   -0.38859E-02  5089   0.207E-01    0.411E-01
RMM:  17    -0.645458562364E+03   -0.68532E-04   -0.18116E-02  5108   0.157E-01    0.148E-01
RMM:  18    -0.645461371010E+03   -0.28086E-02   -0.12432E-02  5102   0.142E-01    0.112E-01
RMM:  19    -0.645463908539E+03   -0.25375E-02   -0.52473E-03  5546   0.882E-02    0.121E-01
RMM:  20    -0.645467063701E+03   -0.31552E-02   -0.31498E-03  4912   0.637E-02    0.733E-02
RMM:  21    -0.645470542025E+03   -0.34783E-02   -0.25941E-03  5000   0.603E-02    0.586E-02
RMM:  22    -0.645471221859E+03   -0.67983E-03   -0.13291E-03  3733   0.404E-02    0.294E-02
RMM:  23    -0.645471993475E+03   -0.77162E-03   -0.80443E-04  3323   0.332E-02    0.224E-02
RMM:  24    -0.645472479928E+03   -0.48645E-03   -0.44691E-04  2768   0.243E-02    0.136E-02
RMM:  25    -0.645472593688E+03   -0.11376E-03   -0.19570E-04  2540   0.186E-02    0.933E-03
RMM:  26    -0.645472778391E+03   -0.18470E-03   -0.21797E-04  2630   0.182E-02    0.435E-03
RMM:  27    -0.645472863592E+03   -0.85201E-04   -0.10292E-04  2255   0.144E-02
   1 F= -.64547286E+03 E0= -.64541340E+03  d E =-.645473E+03
 BRION: g(F)=  0.459E-03 g(S)=  0.000E+00
 bond charge predicted
       N       E                     dE             d eps       ncg     rms          rms(c)
DAV:   1    -0.645472788623E+03   -0.10232E-04   -0.57365E-02  3628   0.388E-01    0.385E-02
RMM:   2    -0.645473076307E+03   -0.28768E-03   -0.29867E-03  3025   0.807E-02    0.272E-02
RMM:   3    -0.645473090068E+03   -0.13762E-04   -0.34987E-04  2223   0.316E-02
   2 F= -.64547309E+03 E0= -.64541360E+03  d E =-.226477E-03
 BRION: g(F)=  0.498E-03 g(S)=  0.000E+00 retain N=  1 mean eig= 0.49
 eig:   0.485
 bond charge predicted
       N       E                     dE             d eps       ncg     rms          rms(c)
DAV:   1    -0.645473098695E+03   -0.22388E-04   -0.21611E-02  3650   0.234E-01    0.248E-02
RMM:   2    -0.645473202217E+03   -0.10352E-03   -0.10190E-03  2379   0.456E-02    0.197E-02
RMM:   3    -0.645473207073E+03   -0.48565E-05   -0.12595E-04  1932   0.183E-02
   3 F= -.64547321E+03 E0= -.64541374E+03  d E =-.117005E-03
 BRION: g(F)=  0.127E-03 g(S)=  0.000E+00 retain N=  1 mean eig= 0.35
 eig:   0.355
 bond charge predicted
       N       E                     dE             d eps       ncg     rms          rms(c)
DAV:   1    -0.645473237844E+03   -0.35627E-04   -0.73364E-03  3632   0.135E-01    0.160E-02
RMM:   2    -0.645473268672E+03   -0.30828E-04   -0.30145E-04  2082   0.268E-02
   4 F= -.64547327E+03 E0= -.64541380E+03  d E =-.615989E-04
 BRION: g(F)=  0.587E-04 g(S)=  0.000E+00 retain N=  2 mean eig= 2.13
 eig:   0.274  3.981
 bond charge predicted
       N       E                     dE             d eps       ncg     rms          rms(c)
DAV:   1    -0.645473300544E+03   -0.62699E-04   -0.39959E-03  3624   0.956E-02    0.128E-02
RMM:   2    -0.645473319578E+03   -0.19035E-04   -0.15061E-04  1960   0.197E-02
   5 F= -.64547332E+03 E0= -.64541385E+03  d E =-.509059E-04
 BRION: g(F)=  0.592E-04 g(S)=  0.000E+00 retain N=  1 mean eig= 0.23
 eig:   0.233
 bond charge predicted
       N       E                     dE             d eps       ncg     rms          rms(c)
DAV:   1    -0.645473328621E+03   -0.28077E-04   -0.10847E-03  3328   0.524E-02    0.755E-03
RMM:   2    -0.645473334882E+03   -0.62616E-05   -0.47513E-05  1534   0.117E-02
   6 F= -.64547333E+03 E0= -.64541387E+03  d E =-.153042E-04
 BRION: g(F)=  0.378E-04 g(S)=  0.000E+00 retain N=  1 mean eig= 0.18
 eig:   0.181
 bond charge predicted
       N       E                     dE             d eps       ncg     rms          rms(c)
DAV:   1    -0.645473360883E+03   -0.32262E-04   -0.22970E-03  3464   0.604E-02    0.764E-03
RMM:   2    -0.645473369030E+03   -0.81470E-05   -0.66316E-05  1552   0.123E-02
   7 F= -.64547337E+03 E0= -.64541391E+03  d E =-.341474E-04
 BRION: g(F)=  0.273E-04 g(S)=  0.000E+00 retain N=  2 mean eig= 1.51
 eig:   0.454  2.571
 bond charge predicted
       N       E                     dE             d eps       ncg     rms          rms(c)
DAV:   1    -0.645473398425E+03   -0.37542E-04   -0.24320E-02  3656   0.194E-01    0.217E-02
RMM:   2    -0.645473465012E+03   -0.66588E-04   -0.66871E-04  2197   0.370E-02
   8 F= -.64547347E+03 E0= -.64541401E+03  d E =-.959826E-04
 BRION: g(F)=  0.117E-04 g(S)=  0.000E+00 retain N=  3 mean eig= 3.76
 eig:   0.413  5.428  5.428
 reached required accuracy - stopping structural energy minimisation
 PROFILE, used timers:     289
