srun: ROUTE: split_hostlist: hl=i01r2n19 tree_width 0
 running on    4 total cores
 distrk:  each k-point on    1 cores,    4 groups
 distr:  one band on    1 cores,    1 groups
 HIP runtime initialized ...    4 DCUs will be used
 Created    4 streams on each DCU
 vasp.6.3.2 27Jun22 (build Mar 15 2023 15:45:48) complex                        
  
 POSCAR found type information on POSCAR C F SiK 
 POSCAR found :  4 types and      98 ions
 Reading from existing POTCAR
 scaLAPACK will be used selectively (only on CPU)
 Reading from existing POTCAR
 LDA part: xc-table for Pade appr. of Perdew
 POSCAR found type information on POSCAR C F SiK 
 POSCAR found :  4 types and      98 ions
 -----------------------------------------------------------------------------
|                                                                             |
|           W    W    AA    RRRRR   N    N  II  N    N   GGGG   !!!           |
|           W    W   A  A   R    R  NN   N  II  NN   N  G    G  !!!           |
|           W    W  A    A  R    R  N N  N  II  N N  N  G       !!!           |
|           W WW W  AAAAAA  RRRRR   N  N N  II  N  N N  G  GGG   !            |
|           WW  WW  A    A  R   R   N   NN  II  N   NN  G    G                |
|           W    W  A    A  R    R  N    N  II  N    N   GGGG   !!!           |
|                                                                             |
|     The distance between some ions is very small. Please check the          |
|     nearest-neighbor list in the OUTCAR file.                               |
|     I HOPE YOU KNOW WHAT YOU ARE DOING!                                     |
|                                                                             |
 -----------------------------------------------------------------------------

 Optimize memory usage for KPAR
 POSCAR, INCAR and KPOINTS ok, starting setup
 FFT: planning ... GRIDC
 FFT: planning ... GRID_SOFT
 FFT: planning ... GRID
 WAVECAR not read
 entering main loop
       N       E                     dE             d eps       ncg     rms          rms(c)
DAV:   1     0.218460277407E+04    0.21846E+04   -0.16897E+05  3500   0.137E+03
DAV:   2    -0.368540601114E+03   -0.25531E+04   -0.24378E+04  4404   0.271E+02
DAV:   3    -0.685650650861E+03   -0.31711E+03   -0.31000E+03  4504   0.893E+01
DAV:   4    -0.704124834083E+03   -0.18474E+02   -0.18320E+02  4752   0.228E+01
DAV:   5    -0.704906771237E+03   -0.78194E+00   -0.78074E+00  5424   0.417E+00    0.454E+01
RMM:   6    -0.626657387286E+03    0.78249E+02   -0.24489E+02  3515   0.212E+01    0.170E+01
RMM:   7    -0.629122279585E+03   -0.24649E+01   -0.93368E+01  3732   0.145E+01    0.119E+01
RMM:   8    -0.627450391068E+03    0.16719E+01   -0.10610E+01  3752   0.596E+00    0.816E+00
RMM:   9    -0.629617629724E+03   -0.21672E+01   -0.92343E+00  3620   0.461E+00    0.120E+01
RMM:  10    -0.628397922315E+03    0.12197E+01   -0.21654E+00  4121   0.240E+00    0.106E+01
RMM:  11    -0.626491701889E+03    0.19062E+01   -0.27800E+00  3787   0.215E+00    0.251E+00
RMM:  12    -0.626483594074E+03    0.81078E-02   -0.58870E-01  4422   0.113E+00    0.208E+00
RMM:  13    -0.626436091154E+03    0.47503E-01   -0.16804E-01  4691   0.598E-01    0.120E+00
RMM:  14    -0.626435273128E+03    0.81803E-03   -0.76663E-02  3682   0.372E-01    0.129E+00
RMM:  15    -0.626424462262E+03    0.10811E-01   -0.14572E-02  4398   0.203E-01    0.333E-01
RMM:  16    -0.626432635384E+03   -0.81731E-02   -0.21747E-02  3816   0.208E-01    0.570E-01
RMM:  17    -0.626467574439E+03   -0.34939E-01   -0.27082E-02  3934   0.221E-01    0.212E+00
RMM:  18    -0.626435509040E+03    0.32065E-01   -0.15669E-02  3951   0.167E-01    0.543E-01
RMM:  19    -0.626440772720E+03   -0.52637E-02   -0.15045E-02  4255   0.155E-01    0.384E-01
RMM:  20    -0.626442584833E+03   -0.18121E-02   -0.38836E-03  4965   0.820E-02    0.316E-01
RMM:  21    -0.626443233082E+03   -0.64825E-03   -0.25468E-03  4277   0.537E-02    0.816E-02
RMM:  22    -0.626444289853E+03   -0.10568E-02   -0.13385E-03  4085   0.495E-02    0.518E-02
RMM:  23    -0.626444941312E+03   -0.65146E-03   -0.51924E-04  4697   0.325E-02    0.540E-02
RMM:  24    -0.626446344717E+03   -0.14034E-02   -0.56860E-04  4216   0.268E-02    0.403E-02
RMM:  25    -0.626446806510E+03   -0.46179E-03   -0.31003E-04  4229   0.221E-02    0.301E-02
RMM:  26    -0.626446924493E+03   -0.11798E-03   -0.65774E-05  5062   0.114E-02    0.177E-02
RMM:  27    -0.626447140890E+03   -0.21640E-03   -0.63553E-05  4419   0.994E-03    0.217E-02
RMM:  28    -0.626447185397E+03   -0.44507E-04   -0.18251E-05  3889   0.546E-03    0.687E-03
RMM:  29    -0.626447210483E+03   -0.25086E-04   -0.11620E-05  3786   0.427E-03    0.939E-03
RMM:  30    -0.626447232817E+03   -0.22333E-04   -0.94332E-06  3677   0.415E-03    0.153E-03
 num prob  num prob RMM:  31    -0.626447246186E+03   -0.13369E-04   -0.41437E-06  2726   0.264E-03    0.227E-03
 num prob RMM:  32    -0.626447250689E+03   -0.45034E-05   -0.20171E-06  2335   0.179E-03    0.164E-03
 num prob  num prob RMM:  33    -0.626447252414E+03   -0.17255E-05   -0.12131E-06  1996   0.137E-03    0.716E-04
 num prob  num prob RMM:  34    -0.626447253852E+03   -0.14377E-05   -0.12706E-06  2211   0.137E-03    0.105E-03
 num prob  num prob  num prob RMM:  35    -0.626447254018E+03   -0.16576E-06   -0.69266E-07  1662   0.102E-03
   1 F= -.62644725E+03 E0= -.62638361E+03  d E =-.626447E+03
 curvature:   0.00 expect dE= 0.000E+00 dE for cont linesearch  0.000E+00
 trial: gam= 0.00000 g(F)=  0.326E+03 g(S)=  0.000E+00 ort = 0.000E+00 (trialstep = 0.100E+01)
 search vector abs. value=  0.326E+03
 bond charge predicted
       N       E                     dE             d eps       ncg     rms          rms(c)
DAV:   1    -0.571583110896E+03    0.54864E+02   -0.64073E+03  3888   0.880E+01    0.164E+01
RMM:   2    -0.626765984284E+03   -0.55183E+02   -0.61415E+02  4245   0.296E+01    0.829E+00
RMM:   3    -0.636625607548E+03   -0.98596E+01   -0.11792E+02  4281   0.109E+01    0.125E+01
RMM:   4    -0.637319599213E+03   -0.69399E+00   -0.30212E+01  5272   0.467E+00    0.101E+01
RMM:   5    -0.634895833840E+03    0.24238E+01   -0.91719E+00  5545   0.327E+00    0.407E+00
RMM:   6    -0.634495590367E+03    0.40024E+00   -0.25541E+00  5999   0.159E+00    0.220E+00
RMM:   7    -0.634497585643E+03   -0.19953E-02   -0.92575E-01  5944   0.104E+00    0.230E+00
RMM:   8    -0.634600994526E+03   -0.10341E+00   -0.71013E-01  5940   0.933E-01    0.273E+00
RMM:   9    -0.634585393364E+03    0.15601E-01   -0.34935E-01  5984   0.666E-01    0.355E+00
WARNING in EDDRMM: call to ZHEGV failed, returncode =   8  4    119
RMM:  10    -0.634657751328E+03   -0.72358E-01   -0.30107E-01  6164   0.581E-01    0.287E+00
RMM:  11    -0.634583020184E+03    0.74731E-01   -0.25637E-01  6000   0.550E-01    0.786E-01
RMM:  12    -0.634594669090E+03   -0.11649E-01   -0.87074E-02  6070   0.339E-01    0.695E-01
RMM:  13    -0.634603832821E+03   -0.91637E-02   -0.13676E-02  6190   0.249E-01    0.870E-01
RMM:  14    -0.634613247630E+03   -0.94148E-02   -0.52937E-02  6074   0.237E-01    0.460E-01
RMM:  15    -0.634613706784E+03   -0.45915E-03    0.59108E-03  6126   0.173E-01    0.572E-01
RMM:  16    -0.634625472255E+03   -0.11765E-01   -0.27146E-02  6153   0.164E-01    0.109E+00
RMM:  17    -0.634632530945E+03   -0.70587E-02   -0.23172E-02  6196   0.147E-01    0.133E+00
RMM:  18    -0.634627457379E+03    0.50736E-02   -0.23345E-03  6200   0.107E-01    0.121E+00
RMM:  19    -0.634615534134E+03    0.11923E-01   -0.11843E-02  6095   0.104E-01    0.567E-01
RMM:  20    -0.634615613509E+03   -0.79375E-04   -0.20813E-02  6099   0.939E-02    0.145E-01
RMM:  21    -0.634616493561E+03   -0.88005E-03   -0.68221E-03  6156   0.738E-02    0.185E-01
RMM:  22    -0.634617770257E+03   -0.12767E-02   -0.11090E-02  6053   0.659E-02    0.161E-01
RMM:  23    -0.634618520697E+03   -0.75044E-03   -0.41308E-03  5880   0.580E-02    0.116E-01
RMM:  24    -0.634619637979E+03   -0.11173E-02   -0.95517E-03  5769   0.524E-02    0.112E-01
RMM:  25    -0.634620641170E+03   -0.10032E-02   -0.89798E-03  5721   0.480E-02    0.836E-02
RMM:  26    -0.634621857640E+03   -0.12165E-02   -0.10598E-02  5725   0.465E-02    0.323E-02
WARNING in EDDRMM: call to ZHEGV failed, returncode =   6  3     32
WARNING in EDDRMM: call to ZHEGV failed, returncode =   8  4     79
RMM:  27    -0.634622968155E+03   -0.11105E-02   -0.10291E-02  5346   0.425E-02    0.370E-02
RMM:  28    -0.634624139293E+03   -0.11711E-02   -0.11058E-02  5321   0.400E-02    0.554E-02
 num prob  num prob  num prob  num prob WARNING in EDDRMM: call to ZHEGV failed, returncode =   6  3     41
 num prob  num prob  num prob  num prob  num prob  num prob  num prob  num prob  num prob  num prob RMM:  29    -0.634625295583E+03   -0.11563E-02   -0.11317E-02  4053   0.378E-02    0.655E-02
WARNING in EDDRMM: call to ZHEGV failed, returncode =   8  4     26
RMM:  30    -0.634626497783E+03   -0.12022E-02   -0.11949E-02  3938   0.364E-02    0.534E-02
 num prob  num prob  num prob  num prob  num prob  num prob  num prob  num prob  num prob  num prob  num prob  num prob RMM:  31    -0.634627757390E+03   -0.12596E-02   -0.12514E-02  3467   0.355E-02    0.609E-02
WARNING in EDDRMM: call to ZHEGV failed, returncode =   6  3     71
 num prob RMM:  32    -0.634629057775E+03   -0.13004E-02   -0.12952E-02  3914   0.354E-02    0.488E-02
RMM:  33    -0.634630390817E+03   -0.13330E-02   -0.13261E-02  5780   0.390E-02    0.153E-02
RMM:  34    -0.634631789395E+03   -0.13986E-02   -0.13938E-02  3577   0.346E-02    0.186E-02
RMM:  35    -0.634633211864E+03   -0.14225E-02   -0.14166E-02  2850   0.330E-02    0.233E-02
RMM:  36    -0.634634680075E+03   -0.14682E-02   -0.14647E-02  3823   0.340E-02    0.267E-02
RMM:  37    -0.634636168933E+03   -0.14889E-02   -0.15027E-02  4801   0.352E-02    0.221E-02
 num prob RMM:  38    -0.634637693787E+03   -0.15249E-02   -0.15230E-02  3007   0.327E-02    0.247E-02
 num prob RMM:  39    -0.634639254187E+03   -0.15604E-02   -0.15514E-02  2592   0.318E-02    0.295E-02
RMM:  40    -0.634640834146E+03   -0.15800E-02   -0.15874E-02  3385   0.327E-02    0.308E-02
RMM:  41    -0.634642429369E+03   -0.15952E-02   -0.16016E-02  3331   0.326E-02    0.327E-02
RMM:  42    -0.634644054161E+03   -0.16248E-02   -0.16255E-02  2771   0.321E-02    0.359E-02
RMM:  43    -0.634645695945E+03   -0.16418E-02   -0.16357E-02  2474   0.316E-02    0.401E-02
RMM:  44    -0.634647357446E+03   -0.16615E-02   -0.16572E-02  2466   0.315E-02    0.442E-02
RMM:  45    -0.634649027513E+03   -0.16701E-02   -0.16616E-02  2423   0.312E-02    0.488E-02
RMM:  46    -0.634650711742E+03   -0.16842E-02   -0.16757E-02  2401   0.310E-02    0.534E-02
RMM:  47    -0.634652398475E+03   -0.16867E-02   -0.16761E-02  2238   0.308E-02    0.583E-02
RMM:  48    -0.634654094649E+03   -0.16962E-02   -0.16812E-02  1849   0.306E-02    0.635E-02
RMM:  49    -0.634655783514E+03   -0.16889E-02   -0.16770E-02  1731   0.305E-02    0.684E-02
RMM:  50    -0.634657467942E+03   -0.16844E-02   -0.16743E-02  1791   0.305E-02    0.732E-02
RMM:  51    -0.634659139360E+03   -0.16714E-02   -0.16627E-02  1769   0.305E-02    0.778E-02
RMM:  52    -0.634660803745E+03   -0.16644E-02   -0.16544E-02  1553   0.304E-02    0.826E-02
RMM:  53    -0.634662448540E+03   -0.16448E-02   -0.16363E-02  1586   0.305E-02    0.871E-02
RMM:  54    -0.634664081689E+03   -0.16331E-02   -0.16235E-02  1454   0.304E-02    0.916E-02
RMM:  55    -0.634665692806E+03   -0.16111E-02   -0.16026E-02  1491   0.305E-02    0.960E-02
RMM:  56    -0.634667285447E+03   -0.15926E-02   -0.15855E-02  1399   0.305E-02    0.100E-01
RMM:  57    -0.634668851648E+03   -0.15662E-02   -0.15630E-02  1506   0.305E-02    0.104E-01
RMM:  58    -0.634670400013E+03   -0.15484E-02   -0.15441E-02  1394   0.305E-02    0.108E-01
RMM:  59    -0.634671922504E+03   -0.15225E-02   -0.15197E-02  1370   0.306E-02    0.112E-01
RMM:  60    -0.634673423927E+03   -0.15014E-02   -0.14996E-02  1322   0.306E-02    0.115E-01
RMM:  61    -0.634674895322E+03   -0.14714E-02   -0.14721E-02  1289   0.307E-02    0.119E-01
RMM:  62    -0.634676339890E+03   -0.14446E-02   -0.14503E-02  1391   0.308E-02    0.122E-01
RMM:  63    -0.634677756938E+03   -0.14170E-02   -0.14238E-02  1349   0.308E-02    0.125E-01
RMM:  64    -0.634679160902E+03   -0.14040E-02   -0.14133E-02  1244   0.308E-02    0.128E-01
RMM:  65    -0.634680553164E+03   -0.13923E-02   -0.14023E-02  1179   0.309E-02    0.130E-01
RMM:  66    -0.634681951052E+03   -0.13979E-02   -0.14107E-02  1155   0.310E-02    0.133E-01
RMM:  67    -0.634683343375E+03   -0.13923E-02   -0.14127E-02  1352   0.311E-02    0.135E-01
RMM:  68    -0.634684760869E+03   -0.14175E-02   -0.14303E-02  1227   0.311E-02    0.138E-01
RMM:  69    -0.634686187988E+03   -0.14271E-02   -0.14385E-02  1093   0.312E-02    0.140E-01
RMM:  70    -0.634687636542E+03   -0.14486E-02   -0.14626E-02  1122   0.313E-02    0.142E-01
RMM:  71    -0.634689102567E+03   -0.14660E-02   -0.14777E-02  1116   0.314E-02    0.144E-01
RMM:  72    -0.634690537050E+03   -0.14345E-02   -0.15083E-02  2363   0.324E-02    0.144E-01
RMM:  73    -0.634692043960E+03   -0.15069E-02   -0.15302E-02  2227   0.321E-02    0.145E-01
RMM:  74    -0.634693595582E+03   -0.15516E-02   -0.15678E-02  1894   0.319E-02    0.147E-01
RMM:  75    -0.634695183482E+03   -0.15879E-02   -0.15973E-02  1501   0.318E-02    0.149E-01
RMM:  76    -0.634696814036E+03   -0.16306E-02   -0.16401E-02  2031   0.320E-02    0.150E-01
RMM:  77    -0.634698466649E+03   -0.16526E-02   -0.16765E-02  2204   0.322E-02    0.151E-01
RMM:  78    -0.634700210314E+03   -0.17437E-02   -0.17244E-02  2070   0.322E-02    0.154E-01
RMM:  79    -0.634702031853E+03   -0.18215E-02   -0.17684E-02  2237   0.330E-02    0.157E-01
RMM:  80    -0.634703859017E+03   -0.18272E-02   -0.18247E-02  2204   0.326E-02    0.159E-01
RMM:  81    -0.634705743684E+03   -0.18847E-02   -0.18594E-02  2203   0.327E-02    0.161E-01
RMM:  82    -0.634707830841E+03   -0.20872E-02   -0.19341E-02  3950   0.354E-02    0.169E-01
RMM:  83    -0.634709867037E+03   -0.20362E-02   -0.19779E-02  2327   0.336E-02    0.172E-01
RMM:  84    -0.634711936411E+03   -0.20694E-02   -0.20269E-02  2342   0.335E-02    0.174E-01
RMM:  85    -0.634714044140E+03   -0.21077E-02   -0.20808E-02  2232   0.333E-02    0.176E-01
RMM:  86    -0.634716197614E+03   -0.21535E-02   -0.21372E-02  2200   0.330E-02    0.177E-01
RMM:  87    -0.634718263263E+03   -0.20656E-02   -0.21941E-02  3557   0.353E-02    0.175E-01
RMM:  88    -0.634720437209E+03   -0.21739E-02   -0.22468E-02  3104   0.346E-02    0.173E-01
RMM:  89    -0.634722581809E+03   -0.21446E-02   -0.23023E-02  4365   0.364E-02    0.168E-01
RMM:  90    -0.634724842151E+03   -0.22603E-02   -0.23498E-02  3585   0.353E-02    0.165E-01
RMM:  91    -0.634727251941E+03   -0.24098E-02   -0.23905E-02  2277   0.337E-02    0.166E-01
RMM:  92    -0.634729542653E+03   -0.22907E-02   -0.24465E-02  4615   0.375E-02    0.161E-01
RMM:  93    -0.634732017982E+03   -0.24753E-02   -0.24734E-02  2421   0.342E-02    0.162E-01
RMM:  94    -0.634734555548E+03   -0.25376E-02   -0.25051E-02  2283   0.337E-02    0.163E-01
RMM:  95    -0.634737082383E+03   -0.25268E-02   -0.25334E-02  2650   0.341E-02    0.162E-01
RMM:  96    -0.634739687608E+03   -0.26052E-02   -0.25544E-02  2255   0.334E-02    0.164E-01
RMM:  97    -0.634741925163E+03   -0.22376E-02   -0.26222E-02  5660   0.444E-02    0.151E-01
RMM:  98    -0.634744420756E+03   -0.24956E-02   -0.26063E-02  4771   0.384E-02    0.146E-01
RMM:  99    -0.634747002222E+03   -0.25815E-02   -0.25962E-02  3671   0.355E-02    0.145E-01
RMM: 100    -0.634749585801E+03   -0.25836E-02   -0.25859E-02  3151   0.352E-02    0.145E-01
RMM: 101    -0.634752182749E+03   -0.25969E-02   -0.25676E-02  2341   0.343E-02    0.146E-01
RMM: 102    -0.634754589442E+03   -0.24067E-02   -0.25999E-02  5501   0.433E-02    0.137E-01
RMM: 103    -0.634757144740E+03   -0.25553E-02   -0.25322E-02  3378   0.358E-02    0.138E-01
RMM: 104    -0.634759674467E+03   -0.25297E-02   -0.24830E-02  2324   0.341E-02    0.141E-01
RMM: 105    -0.634762132090E+03   -0.24576E-02   -0.24457E-02  2828   0.348E-02    0.142E-01
RMM: 106    -0.634764535735E+03   -0.24036E-02   -0.23918E-02  2978   0.350E-02    0.142E-01
RMM: 107    -0.634766839749E+03   -0.23040E-02   -0.23797E-02  5011   0.407E-02    0.139E-01
RMM: 108    -0.634769161285E+03   -0.23215E-02   -0.23052E-02  3050   0.357E-02    0.141E-01
RMM: 109    -0.634771459927E+03   -0.22986E-02   -0.22683E-02  2289   0.346E-02    0.143E-01
RMM: 110    -0.634773715372E+03   -0.22554E-02   -0.22316E-02  2292   0.344E-02    0.146E-01
RMM: 111    -0.634775956680E+03   -0.22413E-02   -0.22145E-02  2222   0.339E-02    0.148E-01
RMM: 112    -0.634778138755E+03   -0.21821E-02   -0.22080E-02  4602   0.381E-02    0.148E-01
RMM: 113    -0.634780341861E+03   -0.22031E-02   -0.21850E-02  2431   0.347E-02    0.150E-01
RMM: 114    -0.634782527923E+03   -0.21861E-02   -0.21636E-02  2288   0.342E-02    0.152E-01
RMM: 115    -0.634784709670E+03   -0.21817E-02   -0.21576E-02  2270   0.339E-02    0.154E-01
RMM: 116    -0.634786880579E+03   -0.21709E-02   -0.21472E-02  2020   0.336E-02    0.156E-01
RMM: 117    -0.634789036373E+03   -0.21558E-02   -0.21650E-02  4648   0.384E-02    0.157E-01
RMM: 118    -0.634791212146E+03   -0.21758E-02   -0.21475E-02  2324   0.344E-02    0.159E-01
RMM: 119    -0.634793383738E+03   -0.21716E-02   -0.21467E-02  2248   0.339E-02    0.161E-01
RMM: 120    -0.634795552513E+03   -0.21688E-02   -0.21442E-02  1589   0.337E-02    0.164E-01
RMM: 121    -0.634797730001E+03   -0.21775E-02   -0.21531E-02  1361   0.336E-02    0.166E-01
RMM: 122    -0.634799910411E+03   -0.21804E-02   -0.21594E-02  3679   0.369E-02    0.167E-01
RMM: 123    -0.634802097077E+03   -0.21867E-02   -0.21741E-02  2267   0.345E-02    0.169E-01
RMM: 124    -0.634804307492E+03   -0.22104E-02   -0.21883E-02  2203   0.341E-02    0.170E-01
RMM: 125    -0.634806544087E+03   -0.22366E-02   -0.22095E-02  1806   0.340E-02    0.172E-01
RMM: 126    -0.634808802941E+03   -0.22589E-02   -0.22293E-02  1277   0.339E-02    0.174E-01
RMM: 127    -0.634811000426E+03   -0.21975E-02   -0.22606E-02  4645   0.394E-02    0.171E-01
RMM: 128    -0.634813309526E+03   -0.23091E-02   -0.22816E-02  3234   0.363E-02    0.172E-01
RMM: 129    -0.634815617587E+03   -0.23081E-02   -0.23010E-02  2695   0.360E-02    0.172E-01
RMM: 130    -0.634817967929E+03   -0.23503E-02   -0.23285E-02  2680   0.359E-02    0.173E-01
RMM: 131    -0.634820352554E+03   -0.23846E-02   -0.23563E-02  2770   0.361E-02    0.174E-01
RMM: 132    -0.634822712244E+03   -0.23597E-02   -0.23907E-02  4316   0.386E-02    0.172E-01
RMM: 133    -0.634825156239E+03   -0.24440E-02   -0.24261E-02  2823   0.365E-02    0.172E-01
RMM: 134    -0.634827657616E+03   -0.25014E-02   -0.24670E-02  2291   0.360E-02    0.173E-01
RMM: 135    -0.634830209282E+03   -0.25517E-02   -0.25105E-02  2486   0.362E-02    0.174E-01
RMM: 136    -0.634832806401E+03   -0.25971E-02   -0.25538E-02  2248   0.359E-02    0.175E-01
RMM: 137    -0.634835307467E+03   -0.25011E-02   -0.26658E-02  6150   0.537E-02    0.166E-01
RMM: 138    -0.634838009339E+03   -0.27019E-02   -0.26644E-02  3751   0.395E-02    0.166E-01
RMM: 139    -0.634840783333E+03   -0.27740E-02   -0.27121E-02  2974   0.378E-02    0.167E-01
RMM: 140    -0.634843611295E+03   -0.28280E-02   -0.27618E-02  3406   0.385E-02    0.169E-01
RMM: 141    -0.634846519651E+03   -0.29084E-02   -0.28223E-02  2473   0.374E-02    0.171E-01
RMM: 142    -0.634849160770E+03   -0.26411E-02   -0.26245E-02  5407   0.457E-02    0.170E-01
RMM: 143    -0.634852115227E+03   -0.29545E-02   -0.28254E-02  3625   0.398E-02    0.174E-01
RMM: 144    -0.634855139218E+03   -0.30240E-02   -0.29286E-02  3363   0.391E-02    0.178E-01
RMM: 145    -0.634858143980E+03   -0.30048E-02   -0.29650E-02  2962   0.388E-02    0.178E-01
RMM: 146    -0.634861217698E+03   -0.30737E-02   -0.29850E-02  2327   0.376E-02    0.182E-01
RMM: 147    -0.634864573740E+03   -0.33560E-02   -0.31704E-02  6257   0.684E-02    0.202E-01
RMM: 148    -0.634867560439E+03   -0.29867E-02   -0.30364E-02  5308   0.466E-02    0.199E-01
RMM: 149    -0.634870350337E+03   -0.27899E-02   -0.30202E-02  5778   0.480E-02    0.188E-01
RMM: 150    -0.634873348348E+03   -0.29980E-02   -0.30391E-02  4835   0.426E-02
 -----------------------------------------------------------------------------
|                                                                             |
|           W    W    AA    RRRRR   N    N  II  N    N   GGGG   !!!           |
|           W    W   A  A   R    R  NN   N  II  NN   N  G    G  !!!           |
|           W    W  A    A  R    R  N N  N  II  N N  N  G       !!!           |
|           W WW W  AAAAAA  RRRRR   N  N N  II  N  N N  G  GGG   !            |
|           WW  WW  A    A  R   R   N   NN  II  N   NN  G    G                |
|           W    W  A    A  R    R  N    N  II  N    N   GGGG   !!!           |
|                                                                             |
|     The electronic self-consistency was not achieved in the given           |
|     number of steps (NELM). The forces and other quantities evaluated       |
|     might not be reliable so examine the results carefully. If you find     |
|     spurious results, we suggest increasing NELM, if you were close to      |
|     convergence or switching to a different ALGO or adjusting the           |
|     density mixing parameters otherwise.                                    |
|                                                                             |
 -----------------------------------------------------------------------------

   2 F= -.63487335E+03 E0= -.63480566E+03  d E =-.842609E+01
 trial-energy change:   -8.426094  1 .order -157.727729 -325.681095   10.225637
 step:   0.9696(harm=  0.9696)  dis= 1.92781  next Energy=  -784.330627 (dE=-0.158E+03)
 bond charge predicted
       N       E                     dE             d eps       ncg     rms          rms(c)
DAV:   1    -0.635255848896E+03   -0.38550E+00   -0.74187E+01  3824   0.904E+00    0.130E+00
RMM:   2    -0.635566314526E+03   -0.31047E+00   -0.31483E+00  3652   0.166E+00    0.163E+00
RMM:   3    -0.635573520100E+03   -0.72056E-02   -0.30199E-01  4938   0.539E-01    0.210E+00
RMM:   4    -0.635587059662E+03   -0.13540E-01   -0.79244E-02  5136   0.234E-01    0.101E+00
RMM:   5    -0.635786145988E+03   -0.19909E+00   -0.25385E-01  5383   0.102E-01    0.718E-01
RMM:   6    -0.635795357705E+03   -0.92117E-02   -0.12824E-01  5001   0.769E-02    0.333E-01
RMM:   7    -0.635796908873E+03   -0.15512E-02   -0.21611E-02  4929   0.580E-02    0.184E-01
RMM:   8    -0.635797351026E+03   -0.44215E-03   -0.94996E-03  4667   0.579E-02    0.117E-01
RMM:   9    -0.635797699881E+03   -0.34885E-03   -0.28469E-03  5599   0.319E-02    0.179E-01
RMM:  10    -0.635797686190E+03    0.13691E-04   -0.12189E-03  5343   0.173E-02    0.123E-01
RMM:  11    -0.635797643988E+03    0.42202E-04   -0.55772E-04  5060   0.172E-02    0.237E-02
RMM:  12    -0.635797709282E+03   -0.65294E-04   -0.24177E-04  5346   0.101E-02    0.229E-02
RMM:  13    -0.635797749438E+03   -0.40155E-04   -0.10243E-04  4412   0.679E-03    0.158E-02
RMM:  14    -0.635797800579E+03   -0.51141E-04   -0.61171E-05  4177   0.604E-03    0.106E-02
 num prob  num prob  num prob  num prob  num prob RMM:  15    -0.635797822910E+03   -0.22332E-04   -0.27964E-05  3061   0.402E-03    0.503E-03
RMM:  16    -0.635797835365E+03   -0.12455E-04   -0.15530E-05  2679   0.300E-03    0.305E-03
RMM:  17    -0.635797864015E+03   -0.28649E-04   -0.12715E-05  2929   0.319E-03    0.191E-03
 num prob RMM:  18    -0.635797877014E+03   -0.12999E-04   -0.68438E-06  2563   0.239E-03    0.362E-03
RMM:  19    -0.635797881591E+03   -0.45772E-05   -0.33701E-06  2227   0.177E-03    0.378E-03
 num prob RMM:  20    -0.635797887630E+03   -0.60392E-05   -0.31997E-06  2345   0.173E-03    0.185E-03
 num prob RMM:  21    -0.635797890722E+03   -0.30918E-05   -0.16159E-06  2071   0.136E-03    0.880E-04
 num prob  num prob RMM:  22    -0.635797892292E+03   -0.15700E-05   -0.11417E-06  1812   0.112E-03    0.843E-04
 num prob RMM:  23    -0.635797894181E+03   -0.18892E-05   -0.81595E-07  1549   0.971E-04    0.435E-04
 num prob RMM:  24    -0.635797895092E+03   -0.91052E-06   -0.71041E-07  1466   0.875E-04
   3 F= -.63579790E+03 E0= -.63573411E+03  d E =-.935064E+01
 curvature:  -0.48 expect dE=-0.903E+01 dE for cont linesearch -0.177E+00
 ZBRENT: interpolating
 opt :   0.9382  next Energy=  -635.968820 (dE=-0.952E+01)
 bond charge predicted
       N       E                     dE             d eps       ncg     rms          rms(c)
DAV:   1    -0.635924844931E+03   -0.12695E+00   -0.78118E+01  3584   0.936E+00    0.132E+00
RMM:   2    -0.636171838718E+03   -0.24699E+00   -0.23957E+00  3658   0.160E+00    0.181E+00
RMM:   3    -0.636150203160E+03    0.21636E-01   -0.18459E-01  5000   0.493E-01    0.943E-01
RMM:   4    -0.636152516391E+03   -0.23132E-02   -0.36699E-02  5373   0.178E-01    0.964E-01
RMM:   5    -0.636146466057E+03    0.60503E-02   -0.12461E-02  5310   0.102E-01    0.222E-01
RMM:   6    -0.636146315093E+03    0.15096E-03   -0.57231E-03  5186   0.742E-02    0.208E-01
RMM:   7    -0.636146251373E+03    0.63721E-04   -0.12469E-03  5633   0.337E-02    0.121E-01
RMM:   8    -0.636146324604E+03   -0.73232E-04   -0.53764E-04  5515   0.215E-02    0.128E-01
RMM:   9    -0.636146341901E+03   -0.17297E-04   -0.28803E-04  5608   0.160E-02    0.892E-02
RMM:  10    -0.636146406172E+03   -0.64271E-04   -0.32409E-04  5468   0.167E-02    0.614E-02
RMM:  11    -0.636146468296E+03   -0.62124E-04   -0.11927E-04  5046   0.971E-03    0.798E-02
RMM:  12    -0.636146488852E+03   -0.20556E-04   -0.10739E-04  5024   0.990E-03    0.131E-02
RMM:  13    -0.636146520977E+03   -0.32126E-04   -0.38222E-05  3725   0.587E-03    0.867E-03
WARNING in EDDRMM: call to ZHEGV failed, returncode =   8  4     55
RMM:  14    -0.636146534697E+03   -0.13719E-04   -0.22494E-05  3034   0.424E-03    0.409E-03
 num prob RMM:  15    -0.636146559562E+03   -0.24866E-04   -0.17413E-05  3176   0.391E-03    0.255E-03
 num prob  num prob  num prob  num prob  num prob  num prob  num prob  num prob  num prob  num prob  num prob  num prob  num prob  num prob  num prob  num prob RMM:  16    -0.636146563477E+03   -0.39145E-05   -0.89795E-06  2281   0.276E-03    0.322E-03
 num prob RMM:  17    -0.636146569217E+03   -0.57401E-05   -0.69998E-06  2340   0.241E-03    0.237E-03
 num prob  num prob  num prob RMM:  18    -0.636146574280E+03   -0.50633E-05   -0.55404E-06  2250   0.220E-03    0.737E-04
 num prob  num prob RMM:  19    -0.636146575507E+03   -0.12265E-05   -0.33700E-06  1920   0.172E-03    0.785E-04
 num prob  num prob  num prob RMM:  20    -0.636146576697E+03   -0.11904E-05   -0.25798E-06  1855   0.151E-03    0.516E-04
 num prob  num prob RMM:  21    -0.636146577300E+03   -0.60238E-06   -0.20529E-06  1751   0.136E-03
   4 F= -.63614658E+03 E0= -.63608292E+03  d E =-.969932E+01
 curvature:  -0.47 expect dE=-0.780E+01 dE for cont linesearch -0.184E+00
 ZBRENT: bisectioning
 opt :   0.4691  next Energy=  -642.854497 (dE=-0.164E+02)
 bond charge predicted
       N       E                     dE             d eps       ncg     rms          rms(c)
DAV:   1    -0.601250210344E+03    0.34896E+02   -0.55740E+03  3964   0.672E+01    0.171E+01
RMM:   2    -0.627849618640E+03   -0.26599E+02   -0.33552E+02  4069   0.220E+01    0.955E+00
RMM:   3    -0.637403154844E+03   -0.95535E+01   -0.97571E+01  3993   0.843E+00    0.145E+01
RMM:   4    -0.636268500459E+03    0.11347E+01   -0.16019E+01  4982   0.329E+00    0.124E+01
RMM:   5    -0.633634191561E+03    0.26343E+01   -0.56440E+00  5399   0.260E+00    0.704E+00
RMM:   6    -0.632554408275E+03    0.10798E+01   -0.25870E+00  5743   0.169E+00    0.337E+00
RMM:   7    -0.632424285275E+03    0.13012E+00   -0.61153E-01  6001   0.806E-01    0.258E+00
RMM:   8    -0.632370976433E+03    0.53309E-01   -0.25908E-01  5939   0.739E-01    0.279E+00
RMM:   9    -0.632279789751E+03    0.91187E-01   -0.50881E-01  5973   0.674E-01    0.109E+00
RMM:  10    -0.632274802092E+03    0.49877E-02    0.48642E-02  6127   0.482E-01    0.106E+00
RMM:  11    -0.632272533274E+03    0.22688E-02   -0.89910E-03  6279   0.400E-01    0.994E-01
RMM:  12    -0.632257400804E+03    0.15132E-01    0.26206E-02  6069   0.401E-01    0.253E-01
RMM:  13    -0.632285382263E+03   -0.27981E-01   -0.14600E-01  6198   0.388E-01    0.125E+00
RMM:  14    -0.632250263655E+03    0.35119E-01    0.20747E-01  6166   0.325E-01    0.337E-01
RMM:  15    -0.632266748256E+03   -0.16485E-01   -0.10015E-01  6175   0.339E-01    0.689E-01
RMM:  16    -0.632253925712E+03    0.12823E-01    0.12636E-01  6205   0.278E-01    0.661E-01
WARNING in EDDRMM: call to ZHEGV failed, returncode =   8  4     65
RMM:  17    -0.632253998001E+03   -0.72288E-04   -0.40313E-02  6229   0.265E-01    0.444E-01
RMM:  18    -0.632247988876E+03    0.60091E-02    0.56453E-02  6217   0.248E-01    0.388E-01
WARNING in EDDRMM: call to ZHEGV failed, returncode =   6  3     92
RMM:  19    -0.632250122015E+03   -0.21331E-02   -0.31967E-02  6215   0.242E-01    0.258E-01
RMM:  20    -0.632245983762E+03    0.41383E-02    0.34904E-02  6212   0.233E-01    0.166E-01
WARNING in EDDRMM: call to ZHEGV failed, returncode =   8  4     85
RMM:  21    -0.632247144654E+03   -0.11609E-02   -0.13346E-02  6197   0.227E-01    0.150E-01
RMM:  22    -0.632244931616E+03    0.22130E-02    0.18246E-02  6188   0.222E-01    0.912E-02
WARNING in EDDRMM: call to ZHEGV failed, returncode =   6  3     92
RMM:  23    -0.632245662961E+03   -0.73135E-03   -0.10104E-02  6171   0.219E-01    0.250E-02
WARNING in EDDRMM: call to ZHEGV failed, returncode =   8  4     50
RMM:  24    -0.632244390972E+03    0.12720E-02    0.11799E-02  6112   0.216E-01    0.506E-02
RMM:  25    -0.632243828796E+03    0.56218E-03    0.35706E-03  5986   0.212E-01    0.278E-02
 num prob RMM:  26    -0.632242710775E+03    0.11180E-02    0.84562E-03  5664   0.210E-01    0.206E-02
 num prob  num prob  num prob WARNING in EDDRMM: call to ZHEGV failed, returncode =   8  4     70
RMM:  27    -0.632242445674E+03    0.26510E-03   -0.27495E-04  5510   0.208E-01    0.186E-02
 num prob  num prob  num prob  num prob  num prob  num prob  num prob  num prob  num prob  num prob  num prob  num prob  num prob  num prob RMM:  28    -0.632241520927E+03    0.92475E-03    0.62023E-03  5388   0.206E-01    0.194E-02
RMM:  29    -0.632241234363E+03    0.28656E-03   -0.12789E-05  5649   0.206E-01    0.148E-02
RMM:  30    -0.632240556606E+03    0.67776E-03    0.39570E-03  5841   0.205E-01    0.685E-03
 num prob  num prob  num prob  num prob  num prob  num prob WARNING in EDDRMM: call to ZHEGV failed, returncode =   6  3    142
 num prob  num prob  num prob  num prob  num prob  num prob  num prob  num prob WARNING in EDDRMM: call to ZHEGV failed, returncode =   6  3     82
RMM:  31    -0.632240361275E+03    0.19533E-03   -0.12022E-03  5090   0.204E-01    0.555E-03
RMM:  32    -0.632239783254E+03    0.57802E-03    0.23311E-03  5213   0.204E-01    0.556E-03
 num prob  num prob  num prob RMM:  33    -0.632239648713E+03    0.13454E-03   -0.19141E-03  5200   0.203E-01    0.108E-02
 num prob RMM:  34    -0.632239191231E+03    0.45748E-03    0.12075E-03  5083   0.203E-01    0.157E-02
 num prob  num prob  num prob  num prob  num prob  num prob  num prob RMM:  35    -0.632239039491E+03    0.15174E-03   -0.19974E-03  4780   0.203E-01    0.137E-02
 num prob  num prob  num prob  num prob RMM:  36    -0.632238643017E+03    0.39647E-03    0.37243E-04  4842   0.202E-01    0.941E-03
 num prob  num prob  num prob  num prob  num prob  num prob  num prob  num prob  num prob  num prob  num prob RMM:  37    -0.632238559654E+03    0.83363E-04   -0.28091E-03  4603   0.203E-01    0.106E-02
 num prob  num prob  num prob  num prob  num prob RMM:  38    -0.632238268019E+03    0.29163E-03   -0.77641E-04  4620   0.202E-01    0.118E-02
RMM:  39    -0.632238148903E+03    0.11912E-03   -0.25827E-03  4663   0.203E-01    0.916E-03
 num prob  num prob  num prob  num prob  num prob  num prob RMM:  40    -0.632237955558E+03    0.19334E-03   -0.18912E-03  4473   0.203E-01    0.952E-03
 num prob  num prob  num prob RMM:  41    -0.632237894166E+03    0.61392E-04   -0.32614E-03  4442   0.203E-01    0.106E-02
 num prob  num prob  num prob  num prob  num prob  num prob RMM:  42    -0.632237757237E+03    0.13693E-03   -0.25516E-03  4307   0.203E-01    0.132E-02
 num prob RMM:  43    -0.632237708625E+03    0.48612E-04   -0.35162E-03  4424   0.204E-01    0.135E-02
 num prob  num prob  num prob  num prob  num prob RMM:  44    -0.632237607288E+03    0.10134E-03   -0.30524E-03  4384   0.204E-01    0.122E-02
RMM:  45    -0.632237601282E+03    0.60051E-05   -0.40774E-03  4751   0.205E-01    0.836E-03
 num prob  num prob  num prob  num prob  num prob  num prob  num prob RMM:  46    -0.632237559674E+03    0.41608E-04   -0.37422E-03  4357   0.205E-01    0.886E-03
 num prob  num prob RMM:  47    -0.632237583444E+03   -0.23769E-04   -0.44437E-03  4309   0.206E-01    0.911E-03
 num prob  num prob  num prob WARNING in EDDRMM: call to ZHEGV failed, returncode =   8  4      9
 num prob  num prob  num prob  num prob  num prob RMM:  48    -0.632237567547E+03    0.15897E-04   -0.40897E-03  4181   0.206E-01    0.113E-02
 num prob WARNING in EDDRMM: call to ZHEGV failed, returncode =   8  4    141
RMM:  49    -0.632237620958E+03   -0.53412E-04   -0.48424E-03  4033   0.207E-01    0.130E-02
 num prob  num prob  num prob  num prob  num prob RMM:  50    -0.632237628471E+03   -0.75127E-05   -0.44598E-03  4184   0.207E-01    0.131E-02
 num prob  num prob  num prob RMM:  51    -0.632237717240E+03   -0.88768E-04   -0.53215E-03  4178   0.208E-01    0.136E-02
 num prob  num prob  num prob  num prob RMM:  52    -0.632237753822E+03   -0.36583E-04   -0.48574E-03  4175   0.209E-01    0.139E-02
 num prob  num prob  num prob RMM:  53    -0.632237867271E+03   -0.11345E-03   -0.56626E-03  3984   0.209E-01    0.152E-02
 num prob  num prob  num prob RMM:  54    -0.632237927729E+03   -0.60458E-04   -0.51840E-03  3805   0.210E-01    0.167E-02
 num prob  num prob RMM:  55    -0.632238058807E+03   -0.13108E-03   -0.59655E-03  4094   0.211E-01    0.172E-02
 num prob RMM:  56    -0.632238146397E+03   -0.87590E-04   -0.55605E-03  3765   0.211E-01    0.188E-02
WARNING in EDDRMM: call to ZHEGV failed, returncode =   6  3    138
 num prob RMM:  57    -0.632238294035E+03   -0.14764E-03   -0.62705E-03  4106   0.212E-01    0.181E-02
 num prob  num prob  num prob  num prob RMM:  58    -0.632238408277E+03   -0.11424E-03   -0.59580E-03  4072   0.213E-01    0.188E-02
 num prob RMM:  59    -0.632238570741E+03   -0.16246E-03   -0.65023E-03  4068   0.214E-01    0.192E-02
 num prob RMM:  60    -0.632238699429E+03   -0.12869E-03   -0.61893E-03  3755   0.214E-01    0.207E-02
RMM:  61    -0.632238874868E+03   -0.17544E-03   -0.67332E-03  3789   0.215E-01    0.217E-02
 num prob  num prob  num prob  num prob RMM:  62    -0.632239023575E+03   -0.14871E-03   -0.65456E-03  4028   0.216E-01    0.218E-02
 num prob RMM:  63    -0.632239213129E+03   -0.18955E-03   -0.69866E-03  3844   0.217E-01    0.228E-02
RMM:  64    -0.632239371445E+03   -0.15832E-03   -0.67236E-03  3575   0.218E-01    0.241E-02
RMM:  65    -0.632239571535E+03   -0.20009E-03   -0.72052E-03  3624   0.218E-01    0.253E-02
RMM:  66    -0.632239742399E+03   -0.17086E-03   -0.69594E-03  3461   0.219E-01    0.268E-02
 num prob RMM:  67    -0.632239949679E+03   -0.20728E-03   -0.73566E-03  3733   0.220E-01    0.288E-02
 num prob RMM:  68    -0.632240134724E+03   -0.18505E-03   -0.71752E-03  3967   0.221E-01    0.315E-02
RMM:  69    -0.632240350320E+03   -0.21560E-03   -0.75724E-03  3837   0.222E-01    0.334E-02
RMM:  70    -0.632240545292E+03   -0.19497E-03   -0.74561E-03  3529   0.223E-01    0.349E-02
RMM:  71    -0.632240767636E+03   -0.22234E-03   -0.78019E-03  3328   0.224E-01    0.362E-02
 num prob RMM:  72    -0.632240969459E+03   -0.20182E-03   -0.77374E-03  3580   0.225E-01    0.361E-02
RMM:  73    -0.632241199957E+03   -0.23050E-03   -0.80177E-03  3312   0.226E-01    0.374E-02
 num prob RMM:  74    -0.632241410310E+03   -0.21035E-03   -0.78615E-03  3271   0.226E-01    0.391E-02
RMM:  75    -0.632241643869E+03   -0.23356E-03   -0.81963E-03  3254   0.227E-01    0.404E-02
RMM:  76    -0.632241860951E+03   -0.21708E-03   -0.81047E-03  3258   0.228E-01    0.416E-02
RMM:  77    -0.632242100445E+03   -0.23949E-03   -0.83296E-03  3784   0.229E-01    0.439E-02
 num prob RMM:  78    -0.632242321099E+03   -0.22065E-03   -0.82944E-03  3309   0.230E-01    0.452E-02
RMM:  79    -0.632242562163E+03   -0.24106E-03   -0.85516E-03  3494   0.231E-01    0.469E-02
RMM:  80    -0.632242786994E+03   -0.22483E-03   -0.84890E-03  3421   0.232E-01    0.483E-02
RMM:  81    -0.632243027002E+03   -0.24001E-03   -0.87386E-03  3217   0.233E-01    0.495E-02
RMM:  82    -0.632243277495E+03   -0.25049E-03   -0.86747E-03  3990   0.235E-01    0.539E-02
RMM:  83    -0.632243511681E+03   -0.23419E-03   -0.88154E-03  3951   0.236E-01    0.558E-02
RMM:  84    -0.632243745365E+03   -0.23368E-03   -0.89363E-03  3878   0.237E-01    0.573E-02
RMM:  85    -0.632243979312E+03   -0.23395E-03   -0.90462E-03  3406   0.238E-01    0.586E-02
RMM:  86    -0.632244211089E+03   -0.23178E-03   -0.91215E-03  3286   0.239E-01    0.599E-02
RMM:  87    -0.632244489985E+03   -0.27890E-03   -0.93450E-03  4071   0.241E-01    0.651E-02
RMM:  88    -0.632244665194E+03   -0.17521E-03   -0.90898E-03  3941   0.241E-01    0.634E-02
RMM:  89    -0.632244918181E+03   -0.25299E-03   -0.96788E-03  3851   0.242E-01    0.644E-02
RMM:  90    -0.632245124924E+03   -0.20674E-03   -0.94196E-03  3914   0.243E-01    0.646E-02
RMM:  91    -0.632245363316E+03   -0.23839E-03   -0.97707E-03  3535   0.244E-01    0.655E-02
RMM:  92    -0.632245575701E+03   -0.21239E-03   -0.10404E-02  4881   0.247E-01    0.589E-02
RMM:  93    -0.632245782521E+03   -0.20682E-03   -0.95640E-03  3940   0.246E-01    0.609E-02
RMM:  94    -0.632245997586E+03   -0.21507E-03   -0.98791E-03  3714   0.247E-01    0.621E-02
RMM:  95    -0.632246210163E+03   -0.21258E-03   -0.10003E-02  3409   0.248E-01    0.633E-02
RMM:  96    -0.632246413463E+03   -0.20330E-03   -0.10064E-02  3345   0.250E-01    0.645E-02
RMM:  97    -0.632246620719E+03   -0.20726E-03   -0.10368E-02  3926   0.251E-01    0.644E-02
RMM:  98    -0.632246812863E+03   -0.19214E-03   -0.10294E-02  3917   0.252E-01    0.651E-02
RMM:  99    -0.632247001264E+03   -0.18840E-03   -0.10403E-02  3673   0.253E-01    0.660E-02
RMM: 100    -0.632247181566E+03   -0.18030E-03   -0.10501E-02  3796   0.254E-01    0.668E-02
RMM: 101    -0.632247353695E+03   -0.17213E-03   -0.10552E-02  3542   0.256E-01    0.680E-02
RMM: 102    -0.632247520232E+03   -0.16654E-03   -0.10820E-02  3932   0.257E-01    0.679E-02
RMM: 103    -0.632247668865E+03   -0.14863E-03   -0.10675E-02  3807   0.258E-01    0.692E-02
srun: Job step aborted: Waiting up to 32 seconds for job step to finish.
slurmstepd: error: *** JOB 67488001 ON i01r2n19 CANCELLED AT 2024-07-19T09:52:45 ***
slurmstepd: error: *** STEP 67488001.0 ON i01r2n19 CANCELLED AT 2024-07-19T09:52:45 ***
