srun: ROUTE: split_hostlist: hl=b01r3n19 tree_width 0
 running on    4 total cores
 distrk:  each k-point on    1 cores,    4 groups
 distr:  one band on    1 cores,    1 groups
 HIP runtime initialized ...    4 DCUs will be used
 Created    4 streams on each DCU
 vasp.6.3.2 27Jun22 (build Mar 15 2023 15:45:48) complex                        
  
 POSCAR found type information on POSCAR C F SiK 
 POSCAR found :  4 types and      98 ions
 Reading from existing POTCAR
 scaLAPACK will be used selectively (only on CPU)
 Reading from existing POTCAR
 LDA part: xc-table for Pade appr. of Perdew
 POSCAR found type information on POSCAR C F SiK 
 POSCAR found :  4 types and      98 ions
 -----------------------------------------------------------------------------
|                                                                             |
|           W    W    AA    RRRRR   N    N  II  N    N   GGGG   !!!           |
|           W    W   A  A   R    R  NN   N  II  NN   N  G    G  !!!           |
|           W    W  A    A  R    R  N N  N  II  N N  N  G       !!!           |
|           W WW W  AAAAAA  RRRRR   N  N N  II  N  N N  G  GGG   !            |
|           WW  WW  A    A  R   R   N   NN  II  N   NN  G    G                |
|           W    W  A    A  R    R  N    N  II  N    N   GGGG   !!!           |
|                                                                             |
|     The distance between some ions is very small. Please check the          |
|     nearest-neighbor list in the OUTCAR file.                               |
|     I HOPE YOU KNOW WHAT YOU ARE DOING!                                     |
|                                                                             |
 -----------------------------------------------------------------------------

 Optimize memory usage for KPAR
 POSCAR, INCAR and KPOINTS ok, starting setup
 FFT: planning ... GRIDC
 FFT: planning ... GRID_SOFT
 FFT: planning ... GRID
 WAVECAR not read
 entering main loop
       N       E                     dE             d eps       ncg     rms          rms(c)
DAV:   1     0.219012501818E+04    0.21901E+04   -0.16898E+05  3500   0.137E+03
DAV:   2    -0.365679315373E+03   -0.25558E+04   -0.24445E+04  4372   0.271E+02
DAV:   3    -0.686258448218E+03   -0.32058E+03   -0.31308E+03  4528   0.896E+01
DAV:   4    -0.704597506415E+03   -0.18339E+02   -0.18189E+02  4632   0.228E+01
DAV:   5    -0.705487435539E+03   -0.88993E+00   -0.88859E+00  5328   0.447E+00    0.453E+01
RMM:   6    -0.626757390589E+03    0.78730E+02   -0.24361E+02  3511   0.212E+01    0.158E+01
RMM:   7    -0.628589517683E+03   -0.18321E+01   -0.91324E+01  3712   0.141E+01    0.102E+01
RMM:   8    -0.627739323585E+03    0.85019E+00   -0.90312E+00  3737   0.539E+00    0.712E+00
RMM:   9    -0.627762335542E+03   -0.23012E-01   -0.65226E+00  3593   0.410E+00    0.665E+00
RMM:  10    -0.627449508853E+03    0.31283E+00   -0.18913E+00  4380   0.231E+00    0.325E+00
RMM:  11    -0.627006838420E+03    0.44267E+00   -0.11509E+00  3715   0.151E+00    0.965E-01
RMM:  12    -0.627044841519E+03   -0.38003E-01   -0.85287E-01  4026   0.130E+00    0.813E-01
RMM:  13    -0.627036450946E+03    0.83906E-02   -0.64822E-02  3881   0.489E-01    0.677E-01
RMM:  14    -0.627025419694E+03    0.11031E-01   -0.65787E-02  3730   0.379E-01    0.242E-01
RMM:  15    -0.627028390236E+03   -0.29705E-02   -0.19034E-02  4839   0.209E-01    0.267E-01
RMM:  16    -0.627031508969E+03   -0.31187E-02   -0.88875E-03  4496   0.112E-01    0.272E-01
RMM:  17    -0.627036548254E+03   -0.50393E-02   -0.12805E-02  4418   0.122E-01    0.855E-02
RMM:  18    -0.627039782898E+03   -0.32346E-02   -0.52877E-03  4986   0.858E-02    0.974E-02
RMM:  19    -0.627040767569E+03   -0.98467E-03   -0.16470E-03  5163   0.482E-02    0.744E-02
RMM:  20    -0.627042326402E+03   -0.15588E-02   -0.21988E-03  4498   0.612E-02    0.578E-02
RMM:  21    -0.627044508796E+03   -0.21824E-02   -0.89780E-04  4458   0.387E-02    0.622E-02
RMM:  22    -0.627045102076E+03   -0.59328E-03   -0.43978E-04  4588   0.245E-02    0.296E-02
RMM:  23    -0.627045830251E+03   -0.72817E-03   -0.94090E-04  4803   0.379E-02    0.394E-02
RMM:  24    -0.627046107345E+03   -0.27709E-03   -0.16406E-04  4198   0.193E-02    0.187E-02
RMM:  25    -0.627046208102E+03   -0.10076E-03   -0.11226E-04  4690   0.145E-02    0.623E-03
WARNING in EDDRMM: call to ZHEGV failed, returncode =   8  4     26
WARNING in EDDRMM: call to ZHEGV failed, returncode =   6  3     33
RMM:  26    -0.627046317305E+03   -0.10920E-03   -0.38103E-05  5105   0.868E-03    0.330E-03
RMM:  27    -0.627046354746E+03   -0.37441E-04   -0.14959E-05  3726   0.478E-03    0.316E-03
 num prob RMM:  28    -0.627046376609E+03   -0.21862E-04   -0.78442E-06  3308   0.337E-03    0.138E-03
 num prob  num prob RMM:  29    -0.627046390950E+03   -0.14341E-04   -0.53518E-06  2980   0.278E-03    0.666E-04
 num prob  num prob  num prob  num prob  num prob  num prob  num prob RMM:  30    -0.627046393209E+03   -0.22590E-05   -0.22618E-06  2406   0.200E-03    0.565E-04
 num prob  num prob  num prob  num prob  num prob  num prob  num prob RMM:  31    -0.627046393659E+03   -0.45077E-06   -0.14264E-06  2080   0.159E-03
   1 F= -.62704639E+03 E0= -.62698237E+03  d E =-.627046E+03
 curvature:   0.00 expect dE= 0.000E+00 dE for cont linesearch  0.000E+00
 trial: gam= 0.00000 g(F)=  0.264E+03 g(S)=  0.000E+00 ort = 0.000E+00 (trialstep = 0.100E+01)
 search vector abs. value=  0.264E+03
 bond charge predicted
       N       E                     dE             d eps       ncg     rms          rms(c)
DAV:   1    -0.585948567025E+03    0.41098E+02   -0.69841E+03  3984   0.951E+01    0.138E+01
RMM:   2    -0.624895258952E+03   -0.38947E+02   -0.42408E+02  4005   0.266E+01    0.653E+00
RMM:   3    -0.636977875008E+03   -0.12083E+02   -0.12373E+02  4121   0.110E+01    0.976E+00
RMM:   4    -0.638492155746E+03   -0.15143E+01   -0.26122E+01  4897   0.459E+00    0.866E+00
RMM:   5    -0.637538812622E+03    0.95334E+00   -0.88957E+00  4776   0.332E+00    0.299E+00
RMM:   6    -0.637615531263E+03   -0.76719E-01   -0.20560E+00  5803   0.167E+00    0.143E+00
RMM:   7    -0.637739333105E+03   -0.12380E+00   -0.78005E-01  5937   0.987E-01    0.123E+00
RMM:   8    -0.637806407211E+03   -0.67074E-01   -0.48836E-01  5992   0.740E-01    0.386E-01
RMM:   9    -0.637885947394E+03   -0.79540E-01   -0.55775E-01  6231   0.601E-01    0.388E-01
RMM:  10    -0.637976174444E+03   -0.90227E-01   -0.79209E-01  6206   0.523E-01    0.265E-01
RMM:  11    -0.638140598035E+03   -0.16442E+00   -0.14238E+00  6179   0.510E-01    0.130E-01
RMM:  12    -0.638400900294E+03   -0.26030E+00   -0.21072E+00  6236   0.460E-01    0.171E-01
RMM:  13    -0.638630732471E+03   -0.22983E+00   -0.13851E+00  6291   0.412E-01    0.249E-01
RMM:  14    -0.638702513092E+03   -0.71781E-01   -0.32484E-01  6279   0.320E-01    0.308E-01
RMM:  15    -0.638712556796E+03   -0.10044E-01   -0.94131E-02  6247   0.272E-01    0.288E-01
WARNING in EDDRMM: call to ZHEGV failed, returncode =   6  3     35
RMM:  16    -0.638720890481E+03   -0.83337E-02   -0.80162E-02  6247   0.243E-01    0.286E-01
RMM:  17    -0.638731379297E+03   -0.10489E-01   -0.11129E-01  5764   0.249E-01    0.202E-01
RMM:  18    -0.638743536192E+03   -0.12157E-01   -0.10950E-01  5859   0.247E-01    0.209E-01
RMM:  19    -0.638752095685E+03   -0.85595E-02   -0.79468E-02  6155   0.212E-01    0.198E-01
RMM:  20    -0.638761394736E+03   -0.92991E-02   -0.88350E-02  6014   0.197E-01    0.189E-01
RMM:  21    -0.638774903778E+03   -0.13509E-01   -0.12190E-01  5904   0.194E-01    0.203E-01
RMM:  22    -0.638786395138E+03   -0.11491E-01   -0.10417E-01  6144   0.181E-01    0.206E-01
RMM:  23    -0.638800231014E+03   -0.13836E-01   -0.12639E-01  6098   0.173E-01    0.209E-01
RMM:  24    -0.638814624591E+03   -0.14394E-01   -0.12790E-01  5855   0.171E-01    0.227E-01
RMM:  25    -0.638830537637E+03   -0.15913E-01   -0.14058E-01  5901   0.171E-01    0.249E-01
RMM:  26    -0.638846322848E+03   -0.15785E-01   -0.13757E-01  5889   0.168E-01    0.275E-01
RMM:  27    -0.638862615531E+03   -0.16293E-01   -0.14533E-01  5999   0.163E-01    0.288E-01
RMM:  28    -0.638879426985E+03   -0.16811E-01   -0.15205E-01  5914   0.158E-01    0.290E-01
RMM:  29    -0.638901514669E+03   -0.22088E-01   -0.19537E-01  5823   0.170E-01    0.314E-01
RMM:  30    -0.638926145655E+03   -0.24631E-01   -0.22059E-01  5746   0.161E-01    0.321E-01
RMM:  31    -0.638960766897E+03   -0.34621E-01   -0.30708E-01  5714   0.157E-01    0.328E-01
RMM:  32    -0.639011259951E+03   -0.50493E-01   -0.42618E-01  5516   0.159E-01    0.359E-01
RMM:  33    -0.639089683721E+03   -0.78424E-01   -0.58213E-01  5582   0.166E-01    0.428E-01
 num prob  num prob  num prob  num prob  num prob  num prob  num prob  num prob  num prob RMM:  34    -0.639205014674E+03   -0.11533E+00   -0.59596E-01  4805   0.173E-01    0.475E-01
 num prob  num prob  num prob  num prob RMM:  35    -0.639218556633E+03   -0.13542E-01   -0.63427E-02  4680   0.137E-01    0.481E-01
 num prob  num prob  num prob  num prob  num prob  num prob  num prob  num prob WARNING in EDDRMM: call to ZHEGV failed, returncode =   8  4    139
 num prob  num prob  num prob  num prob  num prob  num prob  num prob  num prob  num prob  num prob  num prob  num prob  num prob RMM:  36    -0.639220040294E+03   -0.14837E-02   -0.15679E-02  4096   0.124E-01    0.485E-01
 num prob  num prob  num prob  num prob  num prob  num prob  num prob  num prob  num prob  num prob  num prob  num prob  num prob RMM:  37    -0.639221238340E+03   -0.11980E-02   -0.13432E-02  4056   0.118E-01    0.486E-01
 num prob  num prob  num prob  num prob  num prob  num prob  num prob  num prob  num prob  num prob  num prob  num prob  num prob RMM:  38    -0.639221983568E+03   -0.74523E-03   -0.82618E-03  4021   0.115E-01    0.488E-01
 num prob  num prob  num prob  num prob  num prob  num prob  num prob  num prob  num prob  num prob  num prob  num prob  num prob  num prob  num prob RMM:  39    -0.639222747479E+03   -0.76391E-03   -0.93527E-03  3778   0.112E-01    0.488E-01
 num prob  num prob RMM:  40    -0.639223486779E+03   -0.73930E-03   -0.80555E-03  4027   0.111E-01    0.490E-01
 num prob  num prob  num prob  num prob  num prob  num prob  num prob  num prob  num prob  num prob  num prob  num prob  num prob  num prob  num prob  num prob  num prob  num prob  num prob  num prob RMM:  41    -0.639224196283E+03   -0.70950E-03   -0.89650E-03  3497   0.110E-01    0.489E-01
RMM:  42    -0.639224767937E+03   -0.57165E-03   -0.83962E-03  4546   0.110E-01    0.486E-01
RMM:  43    -0.639225809709E+03   -0.10418E-02   -0.95999E-03  4928   0.111E-01    0.492E-01
RMM:  44    -0.639226757641E+03   -0.94793E-03   -0.93213E-03  4766   0.110E-01    0.496E-01
RMM:  45    -0.639227246478E+03   -0.48884E-03   -0.11114E-02  5595   0.114E-01    0.487E-01
WARNING in EDDRMM: call to ZHEGV failed, returncode =   8  4     15
WARNING in EDDRMM: call to ZHEGV failed, returncode =   8  4    148
RMM:  46    -0.639227646260E+03   -0.39978E-03   -0.10137E-02  5456   0.112E-01    0.478E-01
RMM:  47    -0.639227842323E+03   -0.19606E-03   -0.11898E-02  5532   0.113E-01    0.460E-01
RMM:  48    -0.639228172868E+03   -0.33055E-03   -0.10386E-02  5016   0.111E-01    0.450E-01
RMM:  49    -0.639228119807E+03    0.53061E-04   -0.13751E-02  5849   0.116E-01    0.423E-01
RMM:  50    -0.639227913062E+03    0.20675E-03   -0.13468E-02  5896   0.117E-01    0.393E-01
RMM:  51    -0.639228377915E+03   -0.46485E-03   -0.12628E-02  5364   0.113E-01    0.378E-01
RMM:  52    -0.639228613427E+03   -0.23551E-03   -0.13185E-02  5545   0.115E-01    0.356E-01
RMM:  53    -0.639229432397E+03   -0.81897E-03   -0.13140E-02  5011   0.112E-01    0.348E-01
RMM:  54    -0.639229778625E+03   -0.34623E-03   -0.17053E-02  5892   0.121E-01    0.316E-01
RMM:  55    -0.639230490762E+03   -0.71214E-03   -0.18750E-02  6003   0.123E-01    0.289E-01
RMM:  56    -0.639231315146E+03   -0.82438E-03   -0.13580E-02  5557   0.117E-01    0.280E-01
RMM:  57    -0.639232657076E+03   -0.13419E-02   -0.22877E-02  6138   0.127E-01    0.262E-01
RMM:  58    -0.639233361687E+03   -0.70461E-03   -0.88099E-03  4803   0.115E-01    0.264E-01
RMM:  59    -0.639234729366E+03   -0.13677E-02   -0.15778E-02  3959   0.113E-01    0.263E-01
RMM:  60    -0.639235755856E+03   -0.10265E-02   -0.12250E-02  3564   0.112E-01    0.263E-01
RMM:  61    -0.639237099301E+03   -0.13434E-02   -0.15659E-02  3515   0.112E-01    0.263E-01
RMM:  62    -0.639238254915E+03   -0.11556E-02   -0.14127E-02  3505   0.113E-01    0.262E-01
RMM:  63    -0.639239674670E+03   -0.14198E-02   -0.16626E-02  3811   0.113E-01    0.261E-01
RMM:  64    -0.639241005015E+03   -0.13303E-02   -0.15002E-02  3918   0.114E-01    0.262E-01
RMM:  65    -0.639242537949E+03   -0.15329E-02   -0.17387E-02  3187   0.113E-01    0.263E-01
 num prob  num prob RMM:  66    -0.639243993598E+03   -0.14556E-02   -0.16772E-02  3067   0.113E-01    0.263E-01
RMM:  67    -0.639245585636E+03   -0.15920E-02   -0.18573E-02  3997   0.116E-01    0.263E-01
 num prob RMM:  68    -0.639247123271E+03   -0.15376E-02   -0.17708E-02  3077   0.114E-01    0.263E-01
RMM:  69    -0.639248840205E+03   -0.17169E-02   -0.18856E-02  3129   0.115E-01    0.265E-01
 num prob RMM:  70    -0.639250515702E+03   -0.16755E-02   -0.19076E-02  2801   0.115E-01    0.265E-01
RMM:  71    -0.639252277375E+03   -0.17617E-02   -0.19903E-02  3015   0.115E-01    0.266E-01
RMM:  72    -0.639254150720E+03   -0.18733E-02   -0.20509E-02  5531   0.123E-01    0.270E-01
RMM:  73    -0.639256027729E+03   -0.18770E-02   -0.20486E-02  3643   0.118E-01    0.272E-01
 num prob  num prob  num prob RMM:  74    -0.639257890835E+03   -0.18631E-02   -0.20752E-02  3034   0.117E-01    0.274E-01
RMM:  75    -0.639259857986E+03   -0.19672E-02   -0.21568E-02  3085   0.118E-01    0.277E-01
RMM:  76    -0.639261816495E+03   -0.19585E-02   -0.21725E-02  2995   0.118E-01    0.279E-01
RMM:  77    -0.639274031398E+03   -0.12215E-01   -0.12805E-01  6336   0.302E-01    0.373E-01
RMM:  78    -0.639265862854E+03    0.81685E-02    0.15990E-02  6322   0.192E-01    0.242E-01
RMM:  79    -0.639268072153E+03   -0.22093E-02   -0.50605E-02  6327   0.183E-01    0.156E-01
RMM:  80    -0.639268846623E+03   -0.77447E-03   -0.13142E-02  6334   0.142E-01    0.139E-01
RMM:  81    -0.639271987129E+03   -0.31405E-02   -0.33597E-02  6275   0.137E-01    0.139E-01
RMM:  82    -0.639275836103E+03   -0.38490E-02   -0.34618E-02  6324   0.156E-01    0.177E-01
RMM:  83    -0.639276434584E+03   -0.59848E-03   -0.11597E-02  6218   0.136E-01    0.167E-01
RMM:  84    -0.639278944721E+03   -0.25101E-02   -0.25737E-02  5532   0.129E-01    0.178E-01
RMM:  85    -0.639280755872E+03   -0.18112E-02   -0.20317E-02  4652   0.125E-01    0.182E-01
RMM:  86    -0.639283075787E+03   -0.23199E-02   -0.24837E-02  4168   0.124E-01    0.191E-01
RMM:  87    -0.639284540665E+03   -0.14649E-02   -0.20230E-02  4809   0.126E-01    0.187E-01
RMM:  88    -0.639286801408E+03   -0.22607E-02   -0.25152E-02  3295   0.123E-01    0.193E-01
RMM:  89    -0.639288617797E+03   -0.18164E-02   -0.22551E-02  4672   0.126E-01    0.192E-01
RMM:  90    -0.639290720357E+03   -0.21026E-02   -0.25063E-02  4785   0.127E-01    0.194E-01
RMM:  91    -0.639292772722E+03   -0.20524E-02   -0.24988E-02  4501   0.126E-01    0.194E-01
RMM:  92    -0.639294713673E+03   -0.19410E-02   -0.25352E-02  5055   0.129E-01    0.190E-01
RMM:  93    -0.639296721551E+03   -0.20079E-02   -0.27109E-02  5861   0.132E-01    0.182E-01
RMM:  94    -0.639298729532E+03   -0.20080E-02   -0.25287E-02  4950   0.129E-01    0.180E-01
RMM:  95    -0.639300919559E+03   -0.21900E-02   -0.26408E-02  4294   0.127E-01    0.181E-01
RMM:  96    -0.639302917777E+03   -0.19982E-02   -0.24169E-02  3604   0.127E-01    0.183E-01
RMM:  97    -0.639305015642E+03   -0.20979E-02   -0.24790E-02  3155   0.127E-01    0.187E-01
WARNING in EDDRMM: call to ZHEGV failed, returncode =   6  3    150
RMM:  98    -0.639306908126E+03   -0.18925E-02   -0.23044E-02  3049   0.127E-01    0.189E-01
RMM:  99    -0.639308830343E+03   -0.19222E-02   -0.23327E-02  2996   0.128E-01    0.193E-01
RMM: 100    -0.639310588438E+03   -0.17581E-02   -0.22024E-02  2978   0.128E-01    0.195E-01
RMM: 101    -0.639312352602E+03   -0.17642E-02   -0.22580E-02  3304   0.129E-01    0.196E-01
RMM: 102    -0.639314019025E+03   -0.16664E-02   -0.21585E-02  3438   0.130E-01    0.198E-01
RMM: 103    -0.639315691389E+03   -0.16724E-02   -0.21614E-02  2962   0.130E-01    0.200E-01
RMM: 104    -0.639317286427E+03   -0.15950E-02   -0.20924E-02  2898   0.130E-01    0.202E-01
RMM: 105    -0.639318908613E+03   -0.16222E-02   -0.21480E-02  2926   0.131E-01    0.204E-01
RMM: 106    -0.639320458108E+03   -0.15495E-02   -0.20503E-02  2894   0.132E-01    0.207E-01
RMM: 107    -0.639322256527E+03   -0.17984E-02   -0.20201E-02  5074   0.138E-01    0.220E-01
RMM: 108    -0.639323789641E+03   -0.15331E-02   -0.20670E-02  3025   0.134E-01    0.223E-01
RMM: 109    -0.639325154620E+03   -0.13650E-02   -0.20867E-02  3178   0.134E-01    0.221E-01
RMM: 110    -0.639326523088E+03   -0.13685E-02   -0.20384E-02  2856   0.135E-01    0.222E-01
RMM: 111    -0.639327890242E+03   -0.13672E-02   -0.20832E-02  3313   0.136E-01    0.221E-01
RMM: 112    -0.639329540568E+03   -0.16503E-02   -0.53629E-02  6332   0.196E-01    0.123E-01
RMM: 113    -0.639330232929E+03   -0.69236E-03   -0.19075E-02  6298   0.157E-01    0.847E-02
RMM: 114    -0.639332284658E+03   -0.20517E-02   -0.29258E-02  6198   0.150E-01    0.628E-02
RMM: 115    -0.639333329027E+03   -0.10444E-02   -0.18174E-02  5828   0.146E-01    0.404E-02
RMM: 116    -0.639335240358E+03   -0.19113E-02   -0.26538E-02  6043   0.150E-01    0.331E-02
RMM: 117    -0.639336155896E+03   -0.91554E-03   -0.16533E-02  5228   0.143E-01    0.334E-02
RMM: 118    -0.639337247024E+03   -0.10911E-02   -0.18675E-02  3786   0.141E-01    0.329E-02
RMM: 119    -0.639338036532E+03   -0.78951E-03   -0.15981E-02  3410   0.141E-01    0.315E-02
RMM: 120    -0.639338997444E+03   -0.96091E-03   -0.18008E-02  3310   0.141E-01    0.293E-02
RMM: 121    -0.639339843953E+03   -0.84651E-03   -0.17048E-02  3598   0.142E-01    0.304E-02
RMM: 122    -0.639340694832E+03   -0.85088E-03   -0.17493E-02  3551   0.143E-01    0.297E-02
 num prob RMM: 123    -0.639341496733E+03   -0.80190E-03   -0.17346E-02  3287   0.143E-01    0.274E-02
RMM: 124    -0.639342292612E+03   -0.79588E-03   -0.17693E-02  3834   0.145E-01    0.218E-02
RMM: 125    -0.639343084533E+03   -0.79192E-03   -0.17955E-02  3825   0.145E-01    0.159E-02
RMM: 126    -0.639343916082E+03   -0.83155E-03   -0.18636E-02  4138   0.147E-01    0.955E-03
RMM: 127    -0.639344768553E+03   -0.85247E-03   -0.19134E-02  3755   0.147E-01    0.446E-03
RMM: 128    -0.639345682679E+03   -0.91413E-03   -0.20021E-02  3397   0.148E-01    0.413E-03
RMM: 129    -0.639346645833E+03   -0.96315E-03   -0.20842E-02  2926   0.148E-01    0.756E-03
RMM: 130    -0.639347550191E+03   -0.90436E-03   -0.20576E-02  3568   0.149E-01    0.104E-02
RMM: 131    -0.639348522584E+03   -0.97239E-03   -0.21617E-02  2903   0.149E-01    0.138E-02
RMM: 132    -0.639349496949E+03   -0.97436E-03   -0.21957E-02  2864   0.150E-01    0.172E-02
RMM: 133    -0.639350465083E+03   -0.96813E-03   -0.22261E-02  2956   0.151E-01    0.214E-02
RMM: 134    -0.639351465259E+03   -0.10002E-02   -0.22940E-02  2841   0.152E-01    0.247E-02
RMM: 135    -0.639352467766E+03   -0.10025E-02   -0.23359E-02  2395   0.152E-01    0.282E-02
RMM: 136    -0.639353490514E+03   -0.10227E-02   -0.23912E-02  2713   0.153E-01    0.317E-02
RMM: 137    -0.639354530509E+03   -0.10400E-02   -0.24496E-02  2308   0.154E-01    0.353E-02
RMM: 138    -0.639355598850E+03   -0.10683E-02   -0.25154E-02  2026   0.155E-01    0.387E-02
RMM: 139    -0.639356694342E+03   -0.10955E-02   -0.25835E-02  2050   0.156E-01    0.422E-02
RMM: 140    -0.639357828495E+03   -0.11342E-02   -0.26601E-02  2032   0.157E-01    0.457E-02
RMM: 141    -0.639359004795E+03   -0.11763E-02   -0.27434E-02  2058   0.158E-01    0.494E-02
RMM: 142    -0.639360233163E+03   -0.12284E-02   -0.28339E-02  2169   0.158E-01    0.530E-02
RMM: 143    -0.639361515450E+03   -0.12823E-02   -0.29288E-02  2059   0.159E-01    0.566E-02
RMM: 144    -0.639362856890E+03   -0.13414E-02   -0.30252E-02  2001   0.160E-01    0.602E-02
RMM: 145    -0.639364269227E+03   -0.14123E-02   -0.31365E-02  1933   0.161E-01    0.639E-02
RMM: 146    -0.639365746304E+03   -0.14771E-02   -0.32389E-02  2012   0.162E-01    0.675E-02
RMM: 147    -0.639367331051E+03   -0.15847E-02   -0.33878E-02  2849   0.164E-01    0.713E-02
RMM: 148    -0.639368975152E+03   -0.16441E-02   -0.34828E-02  2585   0.164E-01    0.750E-02
RMM: 149    -0.639370740491E+03   -0.17653E-02   -0.36439E-02  2152   0.165E-01    0.787E-02
RMM: 150    -0.639372599447E+03   -0.18590E-02   -0.37739E-02  2026   0.166E-01
 -----------------------------------------------------------------------------
|                                                                             |
|           W    W    AA    RRRRR   N    N  II  N    N   GGGG   !!!           |
|           W    W   A  A   R    R  NN   N  II  NN   N  G    G  !!!           |
|           W    W  A    A  R    R  N N  N  II  N N  N  G       !!!           |
|           W WW W  AAAAAA  RRRRR   N  N N  II  N  N N  G  GGG   !            |
|           WW  WW  A    A  R   R   N   NN  II  N   NN  G    G                |
|           W    W  A    A  R    R  N    N  II  N    N   GGGG   !!!           |
|                                                                             |
|     The electronic self-consistency was not achieved in the given           |
|     number of steps (NELM). The forces and other quantities evaluated       |
|     might not be reliable so examine the results carefully. If you find     |
|     spurious results, we suggest increasing NELM, if you were close to      |
|     convergence or switching to a different ALGO or adjusting the           |
|     density mixing parameters otherwise.                                    |
|                                                                             |
 -----------------------------------------------------------------------------

   2 F= -.63937260E+03 E0= -.63930690E+03  d E =-.123262E+02
 trial-energy change:  -12.326206  1 .order -132.143862 -263.622920   -0.664804
 step:   1.0025(harm=  1.0025)  dis= 2.44282  next Energy=  -759.191096 (dE=-0.132E+03)
 bond charge predicted
       N       E                     dE             d eps       ncg     rms          rms(c)
DAV:   1    -0.641373503402E+03   -0.20028E+01   -0.17709E+01  4000   0.111E+00    0.640E-01
RMM:   2    -0.641423380146E+03   -0.49877E-01   -0.91968E-01  3643   0.604E-01    0.445E-01
RMM:   3    -0.641443910000E+03   -0.20530E-01   -0.30659E-01  3906   0.296E-01    0.216E-01
RMM:   4    -0.641442890329E+03    0.10197E-02   -0.28558E-02  4215   0.138E-01    0.178E-01
RMM:   5    -0.641442839479E+03    0.50850E-04   -0.65442E-03  4419   0.752E-02    0.160E-01
RMM:   6    -0.641442006185E+03    0.83329E-03   -0.39552E-03  3905   0.670E-02    0.398E-02
RMM:   7    -0.641442074843E+03   -0.68658E-04   -0.21308E-03  4895   0.385E-02    0.414E-02
RMM:   8    -0.641442123512E+03   -0.48669E-04   -0.15760E-03  4618   0.226E-02    0.217E-02
RMM:   9    -0.641442212223E+03   -0.88711E-04   -0.12119E-03  4106   0.232E-02    0.153E-02
RMM:  10    -0.641442315002E+03   -0.10278E-03   -0.74646E-04  4197   0.151E-02    0.135E-02
RMM:  11    -0.641442472454E+03   -0.15745E-03   -0.67561E-04  4224   0.145E-02    0.141E-02
RMM:  12    -0.641442804845E+03   -0.33239E-03   -0.62750E-04  4157   0.141E-02    0.756E-03
RMM:  13    -0.641442952012E+03   -0.14717E-03   -0.24970E-04  4111   0.114E-02    0.798E-03
RMM:  14    -0.641443072792E+03   -0.12078E-03   -0.34185E-04  3637   0.100E-02    0.498E-03
RMM:  15    -0.641443162676E+03   -0.89884E-04   -0.12945E-04  3588   0.997E-03    0.241E-03
RMM:  16    -0.641443191402E+03   -0.28726E-04   -0.14648E-04  2936   0.797E-03    0.258E-03
RMM:  17    -0.641443217282E+03   -0.25880E-04   -0.93367E-05  2808   0.733E-03    0.136E-03
RMM:  18    -0.641443228882E+03   -0.11600E-04   -0.18540E-05  2813   0.705E-03    0.102E-03
RMM:  19    -0.641443236267E+03   -0.73852E-05   -0.63286E-05  2373   0.649E-03    0.901E-04
RMM:  20    -0.641443238792E+03   -0.25248E-05   -0.17091E-05  2424   0.630E-03    0.510E-04
WARNING in EDDRMM: call to ZHEGV failed, returncode =   6  3    197
RMM:  21    -0.641443242037E+03   -0.32456E-05   -0.34597E-05  2205   0.610E-03    0.529E-04
RMM:  22    -0.641443243376E+03   -0.13387E-05   -0.19463E-05  2084   0.593E-03    0.568E-04
WARNING in EDDRMM: call to ZHEGV failed, returncode =   6  3    186
RMM:  23    -0.641443244852E+03   -0.14765E-05   -0.22880E-05  1590   0.573E-03    0.984E-04
RMM:  24    -0.641443244896E+03   -0.44036E-07   -0.68462E-06  1495   0.564E-03
   3 F= -.64144324E+03 E0= -.64138131E+03  d E =-.143969E+02
 curvature:  -0.50 expect dE=-0.541E+00 dE for cont linesearch -0.106E-02
 ZBRENT: increasing intervall
 opt :   1.0076  next Energy=  -641.447432 (dE=-0.144E+02)
 bond charge predicted
       N       E                     dE             d eps       ncg     rms          rms(c)
DAV:   1    -0.642047434383E+03   -0.60419E+00   -0.49053E+00  3856   0.200E+00    0.438E-01
RMM:   2    -0.642070338356E+03   -0.22904E-01   -0.34756E-01  3570   0.407E-01    0.287E-01
RMM:   3    -0.642083122274E+03   -0.12784E-01   -0.15919E-01  4046   0.195E-01    0.182E-01
RMM:   4    -0.642084497229E+03   -0.13750E-02   -0.23158E-02  4118   0.940E-02    0.149E-01
RMM:   5    -0.642084601518E+03   -0.10429E-03   -0.64743E-03  4216   0.494E-02    0.775E-02
RMM:   6    -0.642084639313E+03   -0.37795E-04   -0.27096E-03  3873   0.418E-02    0.434E-02
RMM:   7    -0.642084699967E+03   -0.60653E-04   -0.11029E-03  4716   0.244E-02    0.255E-02
RMM:   8    -0.642084738390E+03   -0.38424E-04   -0.53066E-04  4421   0.131E-02    0.114E-02
RMM:   9    -0.642084820880E+03   -0.82489E-04   -0.46969E-04  4213   0.128E-02    0.108E-02
RMM:  10    -0.642084853239E+03   -0.32360E-04   -0.17621E-04  4124   0.775E-03    0.809E-03
RMM:  11    -0.642084889982E+03   -0.36743E-04   -0.16444E-04  3910   0.663E-03    0.452E-03
RMM:  12    -0.642085002794E+03   -0.11281E-03   -0.17699E-04  4948   0.958E-03    0.889E-03
RMM:  13    -0.642085030856E+03   -0.28062E-04   -0.75368E-06  3093   0.501E-03    0.584E-03
RMM:  14    -0.642085062705E+03   -0.31848E-04   -0.59757E-05  3859   0.575E-03    0.247E-03
RMM:  15    -0.642085141906E+03   -0.79201E-04   -0.60679E-05  3185   0.503E-03    0.206E-03
RMM:  16    -0.642085162080E+03   -0.20174E-04   -0.10698E-06  2657   0.334E-03    0.170E-03
RMM:  17    -0.642085198452E+03   -0.36372E-04   -0.37518E-05  2808   0.347E-03    0.100E-03
RMM:  18    -0.642085212601E+03   -0.14150E-04    0.83222E-06  2269   0.281E-03    0.771E-04
RMM:  19    -0.642085216832E+03   -0.42310E-05   -0.32793E-06  2152   0.242E-03    0.701E-04
RMM:  20    -0.642085221548E+03   -0.47155E-05   -0.14352E-06  2388   0.252E-03    0.783E-04
 num prob RMM:  21    -0.642085221006E+03    0.54222E-06    0.90211E-06  1781   0.219E-03
   4 F= -.64208522E+03 E0= -.64202462E+03  d E =-.150388E+02
 curvature:  -1.98 expect dE=-0.223E+01 dE for cont linesearch -0.268E-02
 ZBRENT: increasing intervall
 opt :   1.0177  next Energy=  -642.089740 (dE=-0.150E+02)
 bond charge predicted
       N       E                     dE             d eps       ncg     rms          rms(c)
DAV:   1    -0.642570634862E+03   -0.48541E+00   -0.78520E+00  3704   0.403E+00    0.458E-01
RMM:   2    -0.642616760089E+03   -0.46125E-01   -0.58312E-01  3634   0.680E-01    0.212E-01
RMM:   3    -0.642637185815E+03   -0.20426E-01   -0.23198E-01  4018   0.265E-01    0.164E-01
RMM:   4    -0.642639721149E+03   -0.25353E-02   -0.31567E-02  4251   0.117E-01    0.149E-01
RMM:   5    -0.642640103549E+03   -0.38240E-03   -0.82236E-03  4212   0.556E-02    0.942E-02
RMM:   6    -0.642640075134E+03    0.28415E-04   -0.27077E-03  3792   0.465E-02    0.369E-02
RMM:   7    -0.642640124061E+03   -0.48927E-04   -0.10572E-03  4826   0.270E-02    0.316E-02
RMM:   8    -0.642640132905E+03   -0.88444E-05   -0.41378E-04  4888   0.134E-02    0.166E-02
RMM:   9    -0.642640166371E+03   -0.33465E-04   -0.29521E-04  4257   0.152E-02    0.132E-02
RMM:  10    -0.642640186304E+03   -0.19934E-04   -0.10244E-04  4095   0.824E-03    0.102E-02
RMM:  11    -0.642640204364E+03   -0.18060E-04   -0.58936E-05  3713   0.547E-03    0.746E-03
RMM:  12    -0.642640265599E+03   -0.61234E-04   -0.52430E-05  4614   0.723E-03    0.592E-03
RMM:  13    -0.642640322102E+03   -0.56503E-04   -0.22871E-05  3394   0.424E-03    0.568E-03
RMM:  14    -0.642640353748E+03   -0.31646E-04   -0.13983E-05  2978   0.337E-03    0.372E-03
RMM:  15    -0.642640411437E+03   -0.57688E-04   -0.14897E-05  3122   0.373E-03    0.224E-03
RMM:  16    -0.642640429380E+03   -0.17943E-04   -0.57414E-06  2435   0.245E-03    0.174E-03
RMM:  17    -0.642640434649E+03   -0.52699E-05   -0.27301E-06  2227   0.175E-03    0.824E-04
RMM:  18    -0.642640436610E+03   -0.19604E-05   -0.15616E-06  1819   0.126E-03    0.606E-04
RMM:  19    -0.642640438125E+03   -0.15149E-05   -0.89462E-07  1468   0.103E-03    0.611E-04
RMM:  20    -0.642640441483E+03   -0.33583E-05   -0.11113E-06  2072   0.120E-03    0.340E-04
RMM:  21    -0.642640441875E+03   -0.39208E-06   -0.42925E-07  1165   0.849E-04
   5 F= -.64264044E+03 E0= -.64258155E+03  d E =-.155940E+02
 curvature:  -3.35 expect dE=-0.372E+01 dE for cont linesearch -0.263E-02
 ZBRENT: increasing intervall
 opt :   1.0379  next Energy=  -642.646775 (dE=-0.156E+02)
 bond charge predicted
       N       E                     dE             d eps       ncg     rms          rms(c)
DAV:   1    -0.642578438857E+03    0.62003E-01   -0.26206E+01  3552   0.802E+00    0.634E-01
RMM:   2    -0.642641855894E+03   -0.63417E-01   -0.66851E-01  3577   0.119E+00    0.277E-01
RMM:   3    -0.642645129433E+03   -0.32735E-02   -0.58995E-02  4143   0.408E-01    0.195E-01
RMM:   4    -0.642645688826E+03   -0.55939E-03   -0.10901E-02  4767   0.162E-01    0.124E-01
RMM:   5    -0.642645825133E+03   -0.13631E-03   -0.24792E-03  5139   0.624E-02    0.563E-02
RMM:   6    -0.642646006993E+03   -0.18186E-03   -0.10443E-03  5095   0.349E-02    0.335E-02
RMM:   7    -0.642646069085E+03   -0.62092E-04   -0.49455E-04  5368   0.188E-02    0.226E-02
RMM:   8    -0.642646111664E+03   -0.42579E-04   -0.28026E-04  5153   0.122E-02    0.132E-02
WARNING in EDDRMM: call to ZHEGV failed, returncode =   6  3     70
RMM:   9    -0.642646147690E+03   -0.36026E-04   -0.17068E-04  4264   0.892E-03    0.129E-02
RMM:  10    -0.642646172995E+03   -0.25305E-04   -0.10234E-04  3639   0.681E-03    0.113E-02
RMM:  11    -0.642646213677E+03   -0.40682E-04   -0.67785E-05  4257   0.729E-03    0.593E-03
RMM:  12    -0.642646223628E+03   -0.99511E-05   -0.41138E-05  3220   0.486E-03    0.299E-03
 num prob  num prob  num prob  num prob  num prob  num prob  num prob  num prob  num prob RMM:  13    -0.642646227913E+03   -0.42842E-05   -0.25030E-05  2532   0.376E-03    0.193E-03
RMM:  14    -0.642646237467E+03   -0.95542E-05   -0.17724E-05  2813   0.338E-03    0.114E-03
 num prob  num prob  num prob  num prob  num prob  num prob  num prob  num prob  num prob  num prob  num prob  num prob  num prob  num prob  num prob  num prob  num prob RMM:  15    -0.642646241036E+03   -0.35689E-05   -0.10321E-05  2185   0.271E-03    0.787E-04
RMM:  16    -0.642646242961E+03   -0.19254E-05   -0.80682E-06  2165   0.238E-03    0.523E-04
 num prob  num prob RMM:  17    -0.642646245275E+03   -0.23140E-05   -0.56632E-06  2184   0.221E-03    0.980E-04
 num prob  num prob RMM:  18    -0.642646245983E+03   -0.70821E-06   -0.35919E-06  1767   0.176E-03
   6 F= -.64264625E+03 E0= -.64258721E+03  d E =-.155999E+02
 curvature:  -8.07 expect dE=-0.913E+01 dE for cont linesearch -0.583E-03
 trial: gam= 0.00377 g(F)=  0.113E+01 g(S)=  0.000E+00 ort = 0.138E+00 (trialstep = 0.101E+01)
 search vector abs. value=  0.114E+01
 bond charge predicted
       N       E                     dE             d eps       ncg     rms          rms(c)
DAV:   1    -0.643012377553E+03   -0.36613E+00   -0.71632E+01  3552   0.140E+01    0.177E+00
RMM:   2    -0.643362651476E+03   -0.35027E+00   -0.41132E+00  3593   0.320E+00    0.116E+00
RMM:   3    -0.643382618537E+03   -0.19967E-01   -0.54857E-01  4219   0.125E+00    0.956E-01
RMM:   4    -0.643373388137E+03    0.92304E-02   -0.68402E-02  4064   0.478E-01    0.645E-01
RMM:   5    -0.643368811503E+03    0.45766E-02   -0.51988E-02  3731   0.358E-01    0.244E-01
RMM:   6    -0.643369165775E+03   -0.35427E-03   -0.13749E-02  4476   0.193E-01    0.222E-01
RMM:   7    -0.643368114055E+03    0.10517E-02   -0.34839E-03  4373   0.771E-02    0.127E-01
RMM:   8    -0.643367938878E+03    0.17518E-03   -0.10360E-02  4618   0.113E-01    0.962E-02
RMM:   9    -0.643367814719E+03    0.12416E-03   -0.15225E-03  4002   0.506E-02    0.613E-02
RMM:  10    -0.643367864220E+03   -0.49501E-04   -0.14254E-03  4295   0.430E-02    0.338E-02
RMM:  11    -0.643368148178E+03   -0.28396E-03   -0.99260E-04  4583   0.376E-02    0.424E-02
RMM:  12    -0.643368198670E+03   -0.50491E-04   -0.47950E-04  4250   0.238E-02    0.258E-02
RMM:  13    -0.643368301517E+03   -0.10285E-03   -0.43919E-04  4502   0.237E-02    0.159E-02
RMM:  14    -0.643368742055E+03   -0.44054E-03   -0.29440E-04  4783   0.212E-02    0.222E-02
RMM:  15    -0.643368832762E+03   -0.90707E-04   -0.18752E-04  4275   0.164E-02    0.103E-02
RMM:  16    -0.643368907227E+03   -0.74465E-04   -0.14069E-04  4523   0.144E-02    0.139E-02
RMM:  17    -0.643368956172E+03   -0.48945E-04   -0.72670E-05  4009   0.924E-03    0.700E-03
RMM:  18    -0.643368987033E+03   -0.30861E-04   -0.71568E-05  4276   0.915E-03    0.347E-03
RMM:  19    -0.643369009911E+03   -0.22877E-04   -0.44585E-05  3979   0.685E-03    0.490E-03
RMM:  20    -0.643369043145E+03   -0.33234E-04   -0.32372E-05  3055   0.519E-03    0.289E-03
RMM:  21    -0.643369060459E+03   -0.17314E-04   -0.28666E-05  2990   0.489E-03    0.197E-03
RMM:  22    -0.643369068791E+03   -0.83322E-05   -0.22069E-05  2377   0.392E-03    0.159E-03
RMM:  23    -0.643369077111E+03   -0.83199E-05   -0.19118E-05  2354   0.339E-03    0.484E-04
WARNING in EDDRMM: call to ZHEGV failed, returncode =   6  3     23
RMM:  24    -0.643369079508E+03   -0.23970E-05   -0.15890E-05  1947   0.281E-03    0.579E-04
 num prob RMM:  25    -0.643369081408E+03   -0.18998E-05   -0.13750E-05  1545   0.249E-03    0.520E-04
RMM:  26    -0.643369082978E+03   -0.15701E-05   -0.12119E-05  1348   0.229E-03    0.270E-04
 num prob RMM:  27    -0.643369084177E+03   -0.11991E-05   -0.10662E-05  1159   0.214E-03    0.312E-04
RMM:  28    -0.643369085201E+03   -0.10240E-05   -0.94268E-06  1022   0.200E-03    0.392E-04
RMM:  29    -0.643369086104E+03   -0.90287E-06   -0.83915E-06   980   0.190E-03
   7 F= -.64336909E+03 E0= -.64330947E+03  d E =-.722840E+00
 trial-energy change:   -0.722840  1 .order   -0.749132   -1.140194   -0.358071
 step:   1.7087(harm=  1.4689)  dis= 0.24670  next Energy=  -643.484805 (dE=-0.839E+00)
 bond charge predicted
       N       E                     dE             d eps       ncg     rms          rms(c)
DAV:   1    -0.643302377119E+03    0.66708E-01   -0.34558E+01  3564   0.934E+00    0.111E+00
RMM:   2    -0.643464102936E+03   -0.16173E+00   -0.18431E+00  3615   0.213E+00    0.719E-01
RMM:   3    -0.643474221782E+03   -0.10119E-01   -0.25722E-01  4278   0.839E-01    0.605E-01
RMM:   4    -0.643470600283E+03    0.36215E-02   -0.27805E-02  4106   0.308E-01    0.426E-01
RMM:   5    -0.643468598865E+03    0.20014E-02   -0.21619E-02  3731   0.232E-01    0.156E-01
RMM:   6    -0.643468727246E+03   -0.12838E-03   -0.55267E-03  4411   0.126E-01    0.145E-01
RMM:   7    -0.643468277252E+03    0.44999E-03   -0.13524E-03  4350   0.512E-02    0.894E-02
RMM:   8    -0.643468216892E+03    0.60359E-04   -0.51487E-03  4731   0.783E-02    0.698E-02
RMM:   9    -0.643468129947E+03    0.86945E-04   -0.67115E-04  3869   0.356E-02    0.392E-02
RMM:  10    -0.643468194037E+03   -0.64090E-04   -0.82759E-04  4293   0.343E-02    0.305E-02
RMM:  11    -0.643468348382E+03   -0.15434E-03   -0.25554E-04  4221   0.213E-02    0.200E-02
RMM:  12    -0.643468411708E+03   -0.63325E-04   -0.16398E-04  4432   0.143E-02    0.151E-02
RMM:  13    -0.643468474204E+03   -0.62497E-04   -0.12605E-04  4836   0.125E-02    0.116E-02
RMM:  14    -0.643468700894E+03   -0.22669E-03   -0.11901E-04  4700   0.135E-02    0.135E-02
RMM:  15    -0.643468746727E+03   -0.45834E-04   -0.56080E-05  4261   0.881E-03    0.768E-03
RMM:  16    -0.643468779831E+03   -0.33104E-04   -0.54616E-05  4391   0.868E-03    0.570E-03
RMM:  17    -0.643468811263E+03   -0.31432E-04   -0.25353E-05  3407   0.559E-03    0.472E-03
RMM:  18    -0.643468830180E+03   -0.18917E-04   -0.25591E-05  3574   0.517E-03    0.228E-03
RMM:  19    -0.643468838417E+03   -0.82374E-05   -0.16788E-05  2794   0.399E-03    0.192E-03
RMM:  20    -0.643468860634E+03   -0.22217E-04   -0.13791E-05  2590   0.339E-03    0.143E-03
 num prob RMM:  21    -0.643468868119E+03   -0.74848E-05   -0.10931E-05  2310   0.267E-03    0.105E-03
RMM:  22    -0.643468871863E+03   -0.37445E-05   -0.90852E-06  2112   0.233E-03    0.791E-04
 num prob RMM:  23    -0.643468874858E+03   -0.29949E-05   -0.78671E-06  1737   0.203E-03    0.363E-04
 num prob RMM:  24    -0.643468875996E+03   -0.11377E-05   -0.67564E-06  1515   0.181E-03    0.411E-04
RMM:  25    -0.643468876842E+03   -0.84643E-06   -0.59173E-06  1330   0.167E-03
   8 F= -.64346888E+03 E0= -.64340855E+03  d E =-.822631E+00
 curvature:  -0.54 expect dE=-0.167E+00 dE for cont linesearch -0.176E-02
 trial: gam= 0.33194 g(F)=  0.311E+00 g(S)=  0.000E+00 ort =-0.610E-01 (trialstep = 0.115E+01)
 search vector abs. value=  0.396E+00
 bond charge predicted
       N       E                     dE             d eps       ncg     rms          rms(c)
DAV:   1    -0.643508882275E+03   -0.40006E-01   -0.69397E+01  3540   0.126E+01    0.127E+00
RMM:   2    -0.643755990478E+03   -0.24711E+00   -0.26142E+00  3596   0.233E+00    0.541E-01
RMM:   3    -0.643770517189E+03   -0.14527E-01   -0.27337E-01  4125   0.875E-01    0.461E-01
RMM:   4    -0.643771859085E+03   -0.13419E-02   -0.39338E-02  4541   0.328E-01    0.330E-01
RMM:   5    -0.643771458290E+03    0.40079E-03   -0.85174E-03  4085   0.137E-01    0.166E-01
RMM:   6    -0.643772034246E+03   -0.57596E-03   -0.38053E-03  4175   0.845E-02    0.129E-01
RMM:   7    -0.643772012402E+03    0.21844E-04   -0.16828E-03  4751   0.482E-02    0.431E-02
RMM:   8    -0.643772160905E+03   -0.14850E-03   -0.90468E-04  5378   0.270E-02    0.307E-02
RMM:   9    -0.643772262919E+03   -0.10201E-03   -0.55239E-04  5271   0.181E-02    0.237E-02
RMM:  10    -0.643772383346E+03   -0.12043E-03   -0.36988E-04  4893   0.149E-02    0.198E-02
RMM:  11    -0.643772535864E+03   -0.15252E-03   -0.27217E-04  4741   0.141E-02    0.141E-02
RMM:  12    -0.643772611723E+03   -0.75859E-04   -0.16800E-04  4486   0.101E-02    0.116E-02
RMM:  13    -0.643772662259E+03   -0.50536E-04   -0.12980E-04  4392   0.921E-03    0.537E-03
RMM:  14    -0.643772747803E+03   -0.85543E-04   -0.98939E-05  4569   0.888E-03    0.598E-03
RMM:  15    -0.643772779780E+03   -0.31977E-04   -0.64567E-05  3734   0.638E-03    0.460E-03
RMM:  16    -0.643772805645E+03   -0.25865E-04   -0.50635E-05  3793   0.617E-03    0.279E-03
 num prob  num prob  num prob  num prob RMM:  17    -0.643772819798E+03   -0.14153E-04   -0.33993E-05  2769   0.448E-03    0.210E-03
 num prob  num prob RMM:  18    -0.643772825370E+03   -0.55712E-05   -0.24961E-05  2352   0.361E-03    0.199E-03
 num prob  num prob  num prob  num prob RMM:  19    -0.643772831325E+03   -0.59555E-05   -0.19931E-05  2371   0.335E-03    0.117E-03
RMM:  20    -0.643772845394E+03   -0.14069E-04   -0.16849E-05  2224   0.316E-03    0.921E-04
 num prob  num prob  num prob RMM:  21    -0.643772849671E+03   -0.42767E-05   -0.13562E-05  2037   0.267E-03    0.909E-04
RMM:  22    -0.643772851715E+03   -0.20439E-05   -0.11338E-05  1721   0.233E-03    0.702E-04
 num prob  num prob RMM:  23    -0.643772853169E+03   -0.14541E-05   -0.96484E-06  1567   0.213E-03    0.304E-04
RMM:  24    -0.643772854160E+03   -0.99076E-06   -0.83741E-06  1271   0.193E-03
   9 F= -.64377285E+03 E0= -.64371222E+03  d E =-.303977E+00
 ZBRENT: can't locate minimum, use default step
 trial-energy change:   -0.303977  1 .order   -0.305115   -0.333792   -0.276437
 step:   4.5912(harm=  6.6800)  dis= 0.38062  next Energy=  -644.440183 (dE=-0.971E+00)
 bond charge predicted
       N       E                     dE             d eps       ncg     rms          rms(c)
DAV:   1    -0.641032825869E+03    0.27400E+01   -0.64390E+02  3540   0.370E+01    0.499E+00
RMM:   2    -0.644164385564E+03   -0.31316E+01   -0.34251E+01  3588   0.712E+00    0.260E+00
RMM:   3    -0.644414663492E+03   -0.25028E+00   -0.37859E+00  4094   0.271E+00    0.240E+00
RMM:   4    -0.644393743461E+03    0.20920E-01   -0.42592E-01  4519   0.108E+00    0.145E+00
RMM:   5    -0.644382054623E+03    0.11689E-01   -0.11176E-01  4504   0.487E-01    0.760E-01
RMM:   6    -0.644380619953E+03    0.14347E-02   -0.35240E-02  4526   0.270E-01    0.377E-01
RMM:   7    -0.644383165884E+03   -0.25459E-02   -0.18647E-02  4751   0.184E-01    0.296E-01
RMM:   8    -0.644382511868E+03    0.65402E-03   -0.80972E-03  5007   0.105E-01    0.163E-01
RMM:   9    -0.644382877243E+03   -0.36538E-03   -0.58667E-03  5029   0.757E-02    0.839E-02
RMM:  10    -0.644383285709E+03   -0.40847E-03   -0.35021E-03  5477   0.528E-02    0.530E-02
RMM:  11    -0.644383722876E+03   -0.43717E-03   -0.22482E-03  5590   0.347E-02    0.424E-02
RMM:  12    -0.644384345217E+03   -0.62234E-03   -0.16427E-03  5399   0.327E-02    0.430E-02
RMM:  13    -0.644384667634E+03   -0.32242E-03   -0.11483E-03  5399   0.251E-02    0.227E-02
RMM:  14    -0.644384894549E+03   -0.22692E-03   -0.85461E-04  5413   0.194E-02    0.137E-02
RMM:  15    -0.644385368919E+03   -0.47437E-03   -0.78127E-04  5299   0.234E-02    0.256E-02
RMM:  16    -0.644385410977E+03   -0.42059E-04   -0.61033E-04  4965   0.175E-02    0.152E-02
RMM:  17    -0.644385576065E+03   -0.16509E-03   -0.47784E-04  4993   0.141E-02    0.545E-03
RMM:  18    -0.644385639740E+03   -0.63675E-04   -0.39835E-04  3974   0.107E-02    0.524E-03
 num prob  num prob  num prob WARNING in EDDRMM: call to ZHEGV failed, returncode =   6  3     81
RMM:  19    -0.644385687684E+03   -0.47945E-04   -0.35162E-04  2968   0.901E-03    0.420E-03
RMM:  20    -0.644385810616E+03   -0.12293E-03   -0.32331E-04  3553   0.926E-03    0.306E-03
 num prob  num prob RMM:  21    -0.644385870212E+03   -0.59596E-04   -0.29217E-04  2985   0.787E-03    0.295E-03
RMM:  22    -0.644385906658E+03   -0.36446E-04   -0.26548E-04  2527   0.693E-03    0.262E-03
 num prob  num prob  num prob RMM:  23    -0.644385939280E+03   -0.32622E-04   -0.24422E-04  2354   0.639E-03    0.929E-04
 num prob  num prob RMM:  24    -0.644385963544E+03   -0.24264E-04   -0.22532E-04  2056   0.572E-03    0.934E-04
 num prob  num prob  num prob  num prob RMM:  25    -0.644385985423E+03   -0.21879E-04   -0.20894E-04  2088   0.534E-03    0.886E-04
 num prob  num prob RMM:  26    -0.644386006015E+03   -0.20592E-04   -0.19443E-04  1936   0.503E-03    0.286E-04
 num prob RMM:  27    -0.644386024539E+03   -0.18524E-04   -0.18093E-04  1367   0.466E-03    0.444E-04
 num prob RMM:  28    -0.644386041736E+03   -0.17198E-04   -0.16867E-04  1223   0.441E-03    0.568E-04
RMM:  29    -0.644386057782E+03   -0.16046E-04   -0.15731E-04  1211   0.423E-03    0.290E-04
RMM:  30    -0.644386072740E+03   -0.14958E-04   -0.14681E-04  1050   0.403E-03    0.236E-04
 num prob RMM:  31    -0.644386086690E+03   -0.13949E-04   -0.13704E-04   936   0.387E-03    0.263E-04
RMM:  32    -0.644386099707E+03   -0.13018E-04   -0.12796E-04   894   0.372E-03    0.306E-04
 num prob RMM:  33    -0.644386111862E+03   -0.12155E-04   -0.11946E-04   855   0.358E-03    0.434E-04
RMM:  34    -0.644386123213E+03   -0.11351E-04   -0.11155E-04   833   0.345E-03    0.484E-04
RMM:  35    -0.644386133811E+03   -0.10598E-04   -0.10418E-04   811   0.333E-03    0.543E-04
RMM:  36    -0.644386143712E+03   -0.99007E-05   -0.97299E-05   781   0.321E-03    0.606E-04
RMM:  37    -0.644386152961E+03   -0.92484E-05   -0.90886E-05   736   0.311E-03    0.666E-04
RMM:  38    -0.644386161595E+03   -0.86341E-05   -0.84844E-05   710   0.300E-03    0.724E-04
RMM:  39    -0.644386169659E+03   -0.80643E-05   -0.79237E-05   685   0.290E-03    0.760E-04
RMM:  40    -0.644386177191E+03   -0.75323E-05   -0.73998E-05   674   0.281E-03    0.806E-04
RMM:  41    -0.644386184225E+03   -0.70336E-05   -0.69098E-05   662   0.272E-03    0.840E-04
RMM:  42    -0.644386190794E+03   -0.65694E-05   -0.64535E-05   655   0.264E-03    0.863E-04
RMM:  43    -0.644386196929E+03   -0.61350E-05   -0.60261E-05   639   0.256E-03    0.865E-04
RMM:  44    -0.644386202658E+03   -0.57286E-05   -0.56273E-05   635   0.248E-03    0.833E-04
RMM:  45    -0.644386208009E+03   -0.53514E-05   -0.52564E-05   617   0.240E-03    0.845E-04
RMM:  46    -0.644386213005E+03   -0.49960E-05   -0.49074E-05   598   0.233E-03    0.871E-04
RMM:  47    -0.644386217671E+03   -0.46660E-05   -0.45827E-05   588   0.226E-03    0.900E-04
RMM:  48    -0.644386222029E+03   -0.43578E-05   -0.42800E-05   579   0.220E-03    0.926E-04
RMM:  49    -0.644386226099E+03   -0.40701E-05   -0.39975E-05   570   0.213E-03    0.938E-04
RMM:  50    -0.644386229898E+03   -0.37992E-05   -0.37321E-05   561   0.207E-03    0.958E-04
RMM:  51    -0.644386233447E+03   -0.35484E-05   -0.34850E-05   555   0.201E-03    0.982E-04
RMM:  52    -0.644386236761E+03   -0.33140E-05   -0.32544E-05   551   0.196E-03    0.100E-03
RMM:  53    -0.644386239855E+03   -0.30941E-05   -0.30391E-05   545   0.190E-03    0.103E-03
RMM:  54    -0.644386242744E+03   -0.28895E-05   -0.28380E-05   541   0.185E-03    0.104E-03
RMM:  55    -0.644386245443E+03   -0.26985E-05   -0.26502E-05   539   0.180E-03    0.106E-03
RMM:  56    -0.644386247963E+03   -0.25202E-05   -0.24748E-05   532   0.175E-03    0.108E-03
RMM:  57    -0.644386250316E+03   -0.23530E-05   -0.23111E-05   529   0.170E-03    0.110E-03
RMM:  58    -0.644386252514E+03   -0.21978E-05   -0.21589E-05   522   0.166E-03    0.112E-03
RMM:  59    -0.644386254566E+03   -0.20521E-05   -0.20156E-05   516   0.162E-03    0.114E-03
RMM:  60    -0.644386256482E+03   -0.19158E-05   -0.18821E-05   511   0.157E-03    0.116E-03
RMM:  61    -0.644386258271E+03   -0.17894E-05   -0.17575E-05   509   0.153E-03    0.117E-03
RMM:  62    -0.644386259942E+03   -0.16706E-05   -0.16412E-05   509   0.149E-03    0.119E-03
RMM:  63    -0.644386261502E+03   -0.15601E-05   -0.15326E-05   504   0.146E-03    0.120E-03
RMM:  64    -0.644386262959E+03   -0.14574E-05   -0.14312E-05   502   0.142E-03    0.122E-03
RMM:  65    -0.644386264320E+03   -0.13610E-05   -0.13372E-05   500   0.139E-03    0.123E-03
RMM:  66    -0.644386265590E+03   -0.12698E-05   -0.12482E-05   498   0.135E-03    0.125E-03
RMM:  67    -0.644386266777E+03   -0.11869E-05   -0.11656E-05   496   0.132E-03    0.126E-03
RMM:  68    -0.644386267885E+03   -0.11080E-05   -0.10887E-05   491   0.129E-03    0.128E-03
RMM:  69    -0.644386268919E+03   -0.10340E-05   -0.10166E-05   488   0.126E-03    0.129E-03
RMM:  70    -0.644386269886E+03   -0.96663E-06   -0.94927E-06   486   0.123E-03
  10 F= -.64438627E+03 E0= -.64431938E+03  d E =-.917393E+00
 curvature:  -3.90 expect dE=-0.858E+00 dE for cont linesearch -0.145E+00
 ZBRENT: increasing intervall
 opt :  11.4780  next Energy=  -644.396482 (dE=-0.928E+00)
 bond charge predicted
       N       E                     dE             d eps       ncg     rms          rms(c)
DAV:   1    -0.629018043761E+03    0.15368E+02   -0.23576E+03  3620   0.645E+01    0.119E+01
RMM:   2    -0.642310309707E+03   -0.13292E+02   -0.15920E+02  3629   0.151E+01    0.491E+00
RMM:   3    -0.645066116436E+03   -0.27558E+01   -0.28221E+01  3950   0.561E+00    0.723E+00
RMM:   4    -0.644680815846E+03    0.38530E+00   -0.19624E+00  4342   0.195E+00    0.535E+00
RMM:   5    -0.644341475828E+03    0.33934E+00   -0.16443E+00  3925   0.169E+00    0.190E+00
RMM:   6    -0.644338470458E+03    0.30054E-02   -0.42287E-01  3957   0.872E-01    0.861E-01
RMM:   7    -0.644362624749E+03   -0.24154E-01   -0.13034E-01  4244   0.404E-01    0.842E-01
RMM:   8    -0.644357301831E+03    0.53229E-02   -0.70776E-02  4100   0.266E-01    0.294E-01
RMM:   9    -0.644361877665E+03   -0.45758E-02   -0.36440E-02  5458   0.140E-01    0.264E-01
RMM:  10    -0.644364224440E+03   -0.23468E-02   -0.21363E-02  5568   0.800E-02    0.221E-01
RMM:  11    -0.644366002135E+03   -0.17777E-02   -0.13766E-02  5025   0.726E-02    0.120E-01
RMM:  12    -0.644367451046E+03   -0.14489E-02   -0.10452E-02  4959   0.858E-02    0.769E-02
RMM:  13    -0.644368266620E+03   -0.81557E-03   -0.57244E-03  5464   0.425E-02    0.680E-02
RMM:  14    -0.644369586758E+03   -0.13201E-02   -0.44648E-03  4964   0.530E-02    0.470E-02
RMM:  15    -0.644370285642E+03   -0.69888E-03   -0.26862E-03  5186   0.329E-02    0.451E-02
RMM:  16    -0.644370632534E+03   -0.34689E-03   -0.18750E-03  5209   0.246E-02    0.235E-02
RMM:  17    -0.644370980034E+03   -0.34750E-03   -0.13661E-03  4945   0.218E-02    0.102E-02
RMM:  18    -0.644371160749E+03   -0.18071E-03   -0.99771E-04  5125   0.157E-02    0.115E-02
RMM:  19    -0.644371336589E+03   -0.17584E-03   -0.77290E-04  4330   0.126E-02    0.108E-02
RMM:  20    -0.644371676468E+03   -0.33988E-03   -0.66154E-04  4583   0.144E-02    0.531E-03
RMM:  21    -0.644371821502E+03   -0.14503E-03   -0.54176E-04  4255   0.109E-02    0.780E-03
RMM:  22    -0.644371903037E+03   -0.81536E-04   -0.45653E-04  3283   0.855E-03    0.580E-03
RMM:  23    -0.644371967250E+03   -0.64213E-04   -0.39853E-04  3315   0.843E-03    0.175E-03
WARNING in EDDRMM: call to ZHEGV failed, returncode =   6  3     48
 num prob RMM:  24    -0.644372016571E+03   -0.49321E-04   -0.34995E-04  2508   0.667E-03    0.191E-03
RMM:  25    -0.644372058609E+03   -0.42038E-04   -0.31350E-04  2366   0.606E-03    0.197E-03
 num prob RMM:  26    -0.644372096688E+03   -0.38079E-04   -0.28339E-04  2128   0.526E-03    0.139E-03
RMM:  27    -0.644372130065E+03   -0.33376E-04   -0.25791E-04  1825   0.473E-03    0.130E-03
 num prob RMM:  28    -0.644372160503E+03   -0.30439E-04   -0.23593E-04  1816   0.446E-03    0.701E-04
 num prob WARNING in EDDRMM: call to ZHEGV failed, returncode =   8  4     57
RMM:  29    -0.644372188286E+03   -0.27783E-04   -0.21655E-04  1546   0.410E-03    0.247E-04
RMM:  30    -0.644372213725E+03   -0.25439E-04   -0.19923E-04  1218   0.382E-03    0.429E-04
RMM:  31    -0.644372237150E+03   -0.23425E-04   -0.18353E-04  1131   0.361E-03    0.535E-04
 num prob RMM:  32    -0.644372258771E+03   -0.21620E-04   -0.16925E-04  1014   0.342E-03    0.764E-04
RMM:  33    -0.644372278742E+03   -0.19971E-04   -0.15620E-04   968   0.326E-03    0.111E-03
RMM:  34    -0.644372297198E+03   -0.18456E-04   -0.14421E-04   963   0.312E-03    0.148E-03
RMM:  35    -0.644372314252E+03   -0.17055E-04   -0.13314E-04   950   0.299E-03    0.182E-03
RMM:  36    -0.644372330011E+03   -0.15759E-04   -0.12294E-04   879   0.287E-03    0.201E-03
RMM:  37    -0.644372344572E+03   -0.14561E-04   -0.11355E-04   901   0.276E-03    0.200E-03
RMM:  38    -0.644372358021E+03   -0.13448E-04   -0.10482E-04   827   0.265E-03    0.181E-03
RMM:  39    -0.644372370433E+03   -0.12412E-04   -0.96782E-05   822   0.255E-03    0.972E-04
RMM:  40    -0.644372381913E+03   -0.11480E-04   -0.89351E-05   796   0.245E-03    0.707E-04
RMM:  41    -0.644372392524E+03   -0.10611E-04   -0.82501E-05   752   0.236E-03    0.670E-04
RMM:  42    -0.644372402326E+03   -0.98026E-05   -0.76139E-05   731   0.228E-03    0.773E-04
RMM:  43    -0.644372411372E+03   -0.90461E-05   -0.70264E-05   731   0.221E-03    0.482E-04
RMM:  44    -0.644372419724E+03   -0.83512E-05   -0.64842E-05   749   0.214E-03    0.715E-05
RMM:  45    -0.644372427438E+03   -0.77143E-05   -0.59830E-05   712   0.207E-03    0.291E-04
RMM:  46    -0.644372434565E+03   -0.71270E-05   -0.55194E-05   665   0.200E-03    0.194E-04
RMM:  47    -0.644372441143E+03   -0.65776E-05   -0.50914E-05   647   0.194E-03    0.109E-04
RMM:  48    -0.644372447212E+03   -0.60690E-05   -0.46962E-05   639   0.188E-03    0.156E-04
RMM:  49    -0.644372452814E+03   -0.56021E-05   -0.43314E-05   623   0.182E-03    0.168E-04
RMM:  50    -0.644372457984E+03   -0.51698E-05   -0.39943E-05   611   0.177E-03    0.156E-04
RMM:  51    -0.644372462753E+03   -0.47696E-05   -0.36828E-05   605   0.172E-03    0.117E-04
RMM:  52    -0.644372467152E+03   -0.43992E-05   -0.33954E-05   604   0.166E-03    0.760E-05
RMM:  53    -0.644372471211E+03   -0.40590E-05   -0.31305E-05   593   0.162E-03    0.589E-05
RMM:  54    -0.644372474954E+03   -0.37432E-05   -0.28856E-05   588   0.157E-03    0.360E-05
RMM:  55    -0.644372478407E+03   -0.34526E-05   -0.26594E-05   580   0.152E-03    0.342E-05
RMM:  56    -0.644372481590E+03   -0.31830E-05   -0.24509E-05   578   0.148E-03    0.361E-05
RMM:  57    -0.644372484526E+03   -0.29358E-05   -0.22588E-05   574   0.144E-03    0.194E-05
RMM:  58    -0.644372487232E+03   -0.27064E-05   -0.20813E-05   563   0.140E-03    0.220E-05
RMM:  59    -0.644372489727E+03   -0.24950E-05   -0.19177E-05   552   0.136E-03    0.243E-05
RMM:  60    -0.644372492026E+03   -0.22991E-05   -0.17665E-05   551   0.132E-03    0.219E-05
RMM:  61    -0.644372494145E+03   -0.21185E-05   -0.16273E-05   550   0.129E-03    0.165E-05
RMM:  62    -0.644372496098E+03   -0.19535E-05   -0.14993E-05   535   0.125E-03    0.168E-05
RMM:  63    -0.644372497898E+03   -0.17996E-05   -0.13807E-05   537   0.122E-03    0.187E-05
RMM:  64    -0.644372499557E+03   -0.16588E-05   -0.12714E-05   530   0.119E-03    0.168E-05
RMM:  65    -0.644372501085E+03   -0.15281E-05   -0.11709E-05   525   0.116E-03    0.164E-05
RMM:  66    -0.644372502493E+03   -0.14084E-05   -0.10784E-05   521   0.113E-03    0.164E-05
RMM:  67    -0.644372503790E+03   -0.12973E-05   -0.99280E-06   518   0.110E-03    0.144E-05
RMM:  68    -0.644372504986E+03   -0.11955E-05   -0.91422E-06   511   0.107E-03    0.172E-05
RMM:  69    -0.644372506087E+03   -0.11011E-05   -0.84153E-06   508   0.105E-03    0.244E-05
RMM:  70    -0.644372507101E+03   -0.10136E-05   -0.77464E-06   505   0.102E-03    0.298E-05
RMM:  71    -0.644372508034E+03   -0.93294E-06   -0.71303E-06   503   0.998E-04
  11 F= -.64437251E+03 E0= -.64430453E+03  d E =-.903631E+00
 curvature:  -0.28 expect dE=-0.228E+00 dE for cont linesearch -0.189E-01
 ZBRENT: bracketing found
 ZBRENT: interpolating
 opt :   7.5097  next Energy=  -644.563075 (dE=-0.109E+01)
 bond charge predicted
       N       E                     dE             d eps       ncg     rms          rms(c)
DAV:   1    -0.640211520842E+03    0.41610E+01   -0.84793E+02  3500   0.406E+01    0.780E+00
RMM:   2    -0.644484527580E+03   -0.42730E+01   -0.52640E+01  3560   0.798E+00    0.404E+00
RMM:   3    -0.644801204923E+03   -0.31668E+00   -0.58015E+00  4002   0.286E+00    0.377E+00
RMM:   4    -0.644707665354E+03    0.93540E-01   -0.46397E-01  3922   0.110E+00    0.288E+00
RMM:   5    -0.644599906562E+03    0.10776E+00   -0.60831E-01  3721   0.104E+00    0.666E-01
RMM:   6    -0.644603449158E+03   -0.35426E-02   -0.60936E-02  3769   0.394E-01    0.417E-01
RMM:   7    -0.644605260272E+03   -0.18111E-02   -0.16960E-02  3975   0.193E-01    0.410E-01
RMM:   8    -0.644602184730E+03    0.30755E-02   -0.75672E-03  3738   0.114E-01    0.961E-02
RMM:   9    -0.644602646316E+03   -0.46159E-03   -0.33606E-03  4224   0.687E-02    0.707E-02
RMM:  10    -0.644602964564E+03   -0.31825E-03   -0.13989E-03  5118   0.350E-02    0.600E-02
RMM:  11    -0.644603454902E+03   -0.49034E-03   -0.88519E-04  3953   0.306E-02    0.298E-02
RMM:  12    -0.644603846703E+03   -0.39180E-03   -0.50116E-04  4403   0.187E-02    0.321E-02
RMM:  13    -0.644604205744E+03   -0.35904E-03   -0.37876E-04  4308   0.169E-02    0.230E-02
RMM:  14    -0.644605235449E+03   -0.10297E-02   -0.85109E-04  4849   0.242E-02    0.234E-02
RMM:  15    -0.644605315053E+03   -0.79604E-04   -0.19644E-04  4687   0.109E-02    0.136E-02
RMM:  16    -0.644605413787E+03   -0.98734E-04   -0.94851E-05  4298   0.781E-03    0.867E-03
RMM:  17    -0.644605564514E+03   -0.15073E-03   -0.99427E-05  4290   0.931E-03    0.595E-03
RMM:  18    -0.644605607669E+03   -0.43155E-04   -0.37669E-05  3680   0.461E-03    0.458E-03
RMM:  19    -0.644605704624E+03   -0.96955E-04   -0.33351E-05  3698   0.542E-03    0.531E-03
RMM:  20    -0.644605771574E+03   -0.66949E-04   -0.22478E-05  3278   0.417E-03    0.340E-03
RMM:  21    -0.644605787240E+03   -0.15667E-04   -0.10202E-05  2366   0.245E-03    0.303E-03
RMM:  22    -0.644605818149E+03   -0.30909E-04   -0.11869E-05  2817   0.312E-03    0.157E-03
RMM:  23    -0.644605825820E+03   -0.76710E-05   -0.51120E-06  2149   0.188E-03    0.118E-03
RMM:  24    -0.644605827574E+03   -0.17541E-05   -0.27552E-06  1719   0.126E-03    0.103E-03
RMM:  25    -0.644605831123E+03   -0.35494E-05   -0.24510E-06  2148   0.142E-03    0.411E-04
RMM:  26    -0.644605831841E+03   -0.71743E-06   -0.12881E-06  1556   0.980E-04
  12 F= -.64460583E+03 E0= -.64453542E+03  d E =-.113695E+01
 curvature:  -2.58 expect dE=-0.755E+00 dE for cont linesearch -0.477E-02
 trial: gam= 0.72949 g(F)=  0.293E+00 g(S)=  0.000E+00 ort = 0.271E-01 (trialstep = 0.176E+01)
 search vector abs. value=  0.543E+00
 bond charge predicted
       N       E                     dE             d eps       ncg     rms          rms(c)
DAV:   1    -0.642670197362E+03    0.19356E+01   -0.34285E+02  3612   0.300E+01    0.382E+00
RMM:   2    -0.644770754382E+03   -0.21006E+01   -0.22868E+01  3540   0.564E+00    0.261E+00
RMM:   3    -0.644900670006E+03   -0.12992E+00   -0.23703E+00  4081   0.213E+00    0.250E+00
RMM:   4    -0.644836236130E+03    0.64434E-01   -0.26635E-01  3881   0.874E-01    0.131E+00
RMM:   5    -0.644820870949E+03    0.15365E-01   -0.12093E-01  3807   0.541E-01    0.479E-01
RMM:   6    -0.644817986335E+03    0.28846E-02   -0.23199E-02  3943   0.272E-01    0.323E-01
RMM:   7    -0.644817140719E+03    0.84562E-03   -0.61079E-03  3950   0.124E-01    0.279E-01
RMM:   8    -0.644815555901E+03    0.15848E-02   -0.33915E-03  3987   0.804E-02    0.960E-02
RMM:   9    -0.644815570093E+03   -0.14191E-04   -0.15029E-03  4739   0.503E-02    0.521E-02
RMM:  10    -0.644815604011E+03   -0.33918E-04   -0.47815E-04  4947   0.247E-02    0.379E-02
RMM:  11    -0.644815696010E+03   -0.92000E-04   -0.31601E-04  4236   0.204E-02    0.197E-02
RMM:  12    -0.644815812396E+03   -0.11639E-03   -0.17952E-04  4705   0.140E-02    0.251E-02
RMM:  13    -0.644815886908E+03   -0.74512E-04   -0.93152E-05  4787   0.924E-03    0.235E-02
RMM:  14    -0.644816215110E+03   -0.32820E-03   -0.25066E-04  5288   0.197E-02    0.158E-02
RMM:  15    -0.644816258438E+03   -0.43328E-04   -0.45322E-05  4351   0.820E-03    0.141E-02
RMM:  16    -0.644816323485E+03   -0.65046E-04   -0.69478E-05  4839   0.974E-03    0.141E-02
RMM:  17    -0.644816369300E+03   -0.45816E-04   -0.49484E-05  4669   0.889E-03    0.111E-02
RMM:  18    -0.644816382728E+03   -0.13428E-04   -0.29687E-05  4160   0.664E-03    0.415E-03
RMM:  19    -0.644816399181E+03   -0.16453E-04   -0.20739E-05  4127   0.574E-03    0.492E-03
RMM:  20    -0.644816420801E+03   -0.21620E-04   -0.65489E-06  2694   0.329E-03    0.437E-03
RMM:  21    -0.644816446069E+03   -0.25268E-04   -0.79609E-06  3064   0.338E-03    0.185E-03
RMM:  22    -0.644816456599E+03   -0.10530E-04   -0.39621E-06  2522   0.254E-03    0.139E-03
RMM:  23    -0.644816469449E+03   -0.12850E-04   -0.30232E-06  2372   0.188E-03    0.587E-04
RMM:  24    -0.644816472990E+03   -0.35414E-05   -0.14892E-06  1998   0.129E-03    0.441E-04
RMM:  25    -0.644816473869E+03   -0.87878E-06   -0.76107E-07  1581   0.982E-04
  13 F= -.64481647E+03 E0= -.64474795E+03  d E =-.210642E+00
 trial-energy change:   -0.210642  1 .order   -0.156236   -0.551352    0.238881
 step:   1.3598(harm=  1.2310)  dis= 0.12435  next Energy=  -644.843205 (dE=-0.237E+00)
 bond charge predicted
       N       E                     dE             d eps       ncg     rms          rms(c)
DAV:   1    -0.644769584055E+03    0.46889E-01   -0.18006E+01  3700   0.675E+00    0.742E-01
RMM:   2    -0.644838085677E+03   -0.68502E-01   -0.71443E-01  3586   0.121E+00    0.306E-01
RMM:   3    -0.644842765097E+03   -0.46794E-02   -0.89330E-02  4180   0.472E-01    0.259E-01
RMM:   4    -0.644842485820E+03    0.27928E-03   -0.90008E-03  3942   0.166E-01    0.192E-01
RMM:   5    -0.644842329036E+03    0.15678E-03   -0.66537E-03  3693   0.116E-01    0.148E-01
RMM:   6    -0.644842213183E+03    0.11585E-03   -0.79545E-04  4274   0.460E-02    0.113E-01
RMM:   7    -0.644842090515E+03    0.12267E-03   -0.59723E-04  3752   0.343E-02    0.612E-02
RMM:   8    -0.644842093931E+03   -0.34156E-05   -0.64676E-04  3937   0.357E-02    0.239E-02
RMM:   9    -0.644842124207E+03   -0.30276E-04   -0.82148E-05  3845   0.126E-02    0.144E-02
RMM:  10    -0.644842151730E+03   -0.27524E-04   -0.41112E-05  3867   0.708E-03    0.122E-02
RMM:  11    -0.644842218451E+03   -0.66720E-04   -0.36351E-05  3839   0.649E-03    0.507E-03
RMM:  12    -0.644842262442E+03   -0.43991E-04   -0.21389E-05  3333   0.464E-03    0.522E-03
RMM:  13    -0.644842290899E+03   -0.28457E-04   -0.11679E-05  2818   0.298E-03    0.444E-03
RMM:  14    -0.644842375313E+03   -0.84414E-04   -0.28178E-05  4081   0.575E-03    0.472E-03
RMM:  15    -0.644842395177E+03   -0.19864E-04   -0.71821E-06  2577   0.262E-03    0.416E-03
RMM:  16    -0.644842420920E+03   -0.25743E-04   -0.94156E-06  3070   0.313E-03    0.288E-03
RMM:  17    -0.644842442113E+03   -0.21193E-04   -0.80967E-06  2839   0.314E-03    0.294E-03
RMM:  18    -0.644842455643E+03   -0.13530E-04   -0.48546E-06  2442   0.222E-03    0.163E-03
RMM:  19    -0.644842460009E+03   -0.43655E-05   -0.21389E-06  2133   0.173E-03    0.129E-03
RMM:  20    -0.644842461817E+03   -0.18079E-05   -0.10688E-06  1854   0.116E-03    0.128E-03
RMM:  21    -0.644842465542E+03   -0.37256E-05   -0.12411E-06  2007   0.114E-03    0.535E-04
RMM:  22    -0.644842466450E+03   -0.90742E-06   -0.60509E-07  1625   0.841E-04
  14 F= -.64484247E+03 E0= -.64477341E+03  d E =-.236635E+00
 curvature:  -1.01 expect dE=-0.283E+00 dE for cont linesearch -0.759E-05
 trial: gam= 1.00716 g(F)=  0.281E+00 g(S)=  0.000E+00 ort = 0.202E-02 (trialstep = 0.109E+01)
 search vector abs. value=  0.836E+00
 bond charge predicted
       N       E                     dE             d eps       ncg     rms          rms(c)
DAV:   1    -0.644651176598E+03    0.19129E+00   -0.77123E+01  3500   0.147E+01    0.154E+00
RMM:   2    -0.644975315999E+03   -0.32414E+00   -0.34335E+00  3571   0.287E+00    0.821E-01
RMM:   3    -0.644998729814E+03   -0.23414E-01   -0.42909E-01  4161   0.114E+00    0.688E-01
RMM:   4    -0.644997409551E+03    0.13203E-02   -0.52149E-02  4159   0.416E-01    0.529E-01
RMM:   5    -0.644995824007E+03    0.15855E-02   -0.26626E-02  3600   0.262E-01    0.168E-01
RMM:   6    -0.644996340120E+03   -0.51611E-03   -0.56940E-03  4065   0.136E-01    0.160E-01
RMM:   7    -0.644995869677E+03    0.47044E-03   -0.13900E-03  4362   0.574E-02    0.983E-02
RMM:   8    -0.644996219623E+03   -0.34995E-03   -0.89835E-03  4762   0.105E-01    0.114E-01
RMM:   9    -0.644995720499E+03    0.49912E-03   -0.16210E-03  3589   0.512E-02    0.426E-02
RMM:  10    -0.644995766134E+03   -0.45635E-04   -0.11145E-03  3955   0.416E-02    0.272E-02
RMM:  11    -0.644995837660E+03   -0.71526E-04   -0.18038E-04  4248   0.185E-02    0.214E-02
RMM:  12    -0.644995867541E+03   -0.29881E-04   -0.89776E-05  3872   0.109E-02    0.147E-02
RMM:  13    -0.644995886251E+03   -0.18710E-04   -0.61805E-05  4022   0.846E-03    0.572E-03
RMM:  14    -0.644995923779E+03   -0.37528E-04   -0.39292E-05  4082   0.668E-03    0.600E-03
RMM:  15    -0.644995933748E+03   -0.99690E-05   -0.15621E-05  2564   0.315E-03    0.466E-03
RMM:  16    -0.644995941292E+03   -0.75444E-05   -0.14955E-05  3166   0.381E-03    0.156E-03
RMM:  17    -0.644995952449E+03   -0.11157E-04   -0.80790E-06  2508   0.264E-03    0.126E-03
RMM:  18    -0.644995953562E+03   -0.11132E-05   -0.40406E-06  2102   0.148E-03    0.753E-04
RMM:  19    -0.644995954078E+03   -0.51612E-06   -0.25669E-06  1891   0.119E-03
  15 F= -.64499595E+03 E0= -.64492934E+03  d E =-.153488E+00
 trial-energy change:   -0.153488  1 .order   -0.147855   -0.309812    0.014101
 step:   1.0496(harm=  1.0453)  dis= 0.07824  next Energy=  -644.996233 (dE=-0.154E+00)
 bond charge predicted
       N       E                     dE             d eps       ncg     rms          rms(c)
DAV:   1    -0.644995751101E+03    0.20246E-03   -0.12092E-01  3752   0.587E-01    0.694E-02
RMM:   2    -0.644996220920E+03   -0.46982E-03   -0.52735E-03  3604   0.114E-01    0.357E-02
RMM:   3    -0.644996237329E+03   -0.16409E-04   -0.60466E-04  4133   0.439E-02    0.301E-02
RMM:   4    -0.644996233301E+03    0.40274E-05   -0.87252E-05  3950   0.170E-02    0.232E-02
RMM:   5    -0.644996234432E+03   -0.11308E-05   -0.84376E-05  3551   0.142E-02    0.113E-02
RMM:   6    -0.644996232624E+03    0.18077E-05   -0.94721E-06  3121   0.561E-03    0.726E-03
RMM:   7    -0.644996231668E+03    0.95682E-06   -0.49188E-06  2480   0.345E-03
  16 F= -.64499623E+03 E0= -.64492953E+03  d E =-.153765E+00
 curvature:  -1.53 expect dE=-0.945E-01 dE for cont linesearch -0.885E-08
 trial: gam= 0.17806 g(F)=  0.618E-01 g(S)=  0.000E+00 ort = 0.696E-04 (trialstep = 0.108E+01)
 search vector abs. value=  0.884E-01
 bond charge predicted
       N       E                     dE             d eps       ncg     rms          rms(c)
DAV:   1    -0.645018154463E+03   -0.21922E-01   -0.86229E+00  3576   0.499E+00    0.516E-01
RMM:   2    -0.645053329605E+03   -0.35175E-01   -0.36967E-01  3549   0.910E-01    0.247E-01
RMM:   3    -0.645055038000E+03   -0.17084E-02   -0.46620E-02  4181   0.364E-01    0.197E-01
RMM:   4    -0.645054918147E+03    0.11985E-03   -0.45469E-03  4058   0.129E-01    0.142E-01
RMM:   5    -0.645054847560E+03    0.70588E-04   -0.19811E-03  3640   0.749E-02    0.648E-02
RMM:   6    -0.645054833713E+03    0.13846E-04   -0.34813E-04  4178   0.340E-02    0.482E-02
RMM:   7    -0.645054801664E+03    0.32049E-04   -0.85545E-05  4247   0.153E-02    0.301E-02
RMM:   8    -0.645054788455E+03    0.13209E-04   -0.19879E-04  3948   0.188E-02    0.113E-02
RMM:   9    -0.645054791242E+03   -0.27865E-05   -0.23716E-05  3661   0.815E-03    0.890E-03
RMM:  10    -0.645054791576E+03   -0.33433E-06   -0.85129E-06  2973   0.424E-03
  17 F= -.64505479E+03 E0= -.64498873E+03  d E =-.585599E-01
 trial-energy change:   -0.058560  1 .order   -0.058514   -0.067061   -0.049967
 step:   4.2534(harm=  4.2534)  dis= 0.09210  next Energy=  -645.127772 (dE=-0.132E+00)
 bond charge predicted
       N       E                     dE             d eps       ncg     rms          rms(c)
DAV:   1    -0.644769233869E+03    0.28556E+00   -0.73938E+01  3580   0.147E+01    0.146E+00
RMM:   2    -0.645104120187E+03   -0.33489E+00   -0.34828E+00  3541   0.274E+00    0.822E-01
RMM:   3    -0.645124995399E+03   -0.20875E-01   -0.43245E-01  4160   0.111E+00    0.659E-01
RMM:   4    -0.645123400288E+03    0.15951E-02   -0.43626E-02  4001   0.393E-01    0.405E-01
RMM:   5    -0.645122583951E+03    0.81634E-03   -0.10466E-02  3720   0.189E-01    0.187E-01
RMM:   6    -0.645122896347E+03   -0.31240E-03   -0.38625E-03  4030   0.109E-01    0.155E-01
RMM:   7    -0.645122462942E+03    0.43340E-03   -0.79416E-04  4176   0.477E-02    0.593E-02
RMM:   8    -0.645122462875E+03    0.67193E-07   -0.63115E-04  4033   0.350E-02    0.349E-02
RMM:   9    -0.645122477277E+03   -0.14402E-04   -0.21165E-04  4892   0.205E-02    0.213E-02
RMM:  10    -0.645122476914E+03    0.36348E-06   -0.58287E-05  4253   0.935E-03    0.118E-02
RMM:  11    -0.645122510077E+03   -0.33163E-04   -0.10549E-04  4318   0.121E-02    0.122E-02
RMM:  12    -0.645122513255E+03   -0.31773E-05   -0.19130E-05  3806   0.570E-03    0.799E-03
RMM:  13    -0.645122517889E+03   -0.46341E-05   -0.38048E-05  4124   0.702E-03    0.578E-03
RMM:  14    -0.645122528400E+03   -0.10511E-04   -0.91668E-06  3158   0.402E-03    0.470E-03
RMM:  15    -0.645122530765E+03   -0.23650E-05   -0.41918E-06  2319   0.211E-03    0.342E-03
RMM:  16    -0.645122532888E+03   -0.21226E-05   -0.45984E-06  2512   0.241E-03    0.100E-03
RMM:  17    -0.645122537438E+03   -0.45506E-05   -0.31204E-06  2300   0.212E-03    0.137E-03
RMM:  18    -0.645122538151E+03   -0.71228E-06   -0.11807E-06  2095   0.131E-03
  18 F= -.64512254E+03 E0= -.64505779E+03  d E =-.126306E+00
 curvature:  -3.04 expect dE=-0.131E+00 dE for cont linesearch -0.604E-03
 trial: gam= 0.66414 g(F)=  0.430E-01 g(S)=  0.000E+00 ort =-0.419E-02 (trialstep = 0.172E+01)
 search vector abs. value=  0.764E-01
 bond charge predicted
       N       E                     dE             d eps       ncg     rms          rms(c)
DAV:   1    -0.645113083196E+03    0.94542E-02   -0.10380E+01  3532   0.548E+00    0.581E-01
RMM:   2    -0.645158184123E+03   -0.45101E-01   -0.48332E-01  3553   0.113E+00    0.331E-01
RMM:   3    -0.645160429904E+03   -0.22458E-02   -0.63238E-02  4140   0.454E-01    0.248E-01
RMM:   4    -0.645159944112E+03    0.48579E-03   -0.74374E-03  3921   0.171E-01    0.128E-01
RMM:   5    -0.645160282878E+03   -0.33877E-03   -0.24353E-03  3945   0.891E-02    0.119E-01
RMM:   6    -0.645160040670E+03    0.24221E-03   -0.67995E-04  3994   0.444E-02    0.337E-02
RMM:   7    -0.645160059492E+03   -0.18823E-04   -0.34669E-04  4024   0.253E-02    0.233E-02
RMM:   8    -0.645160106982E+03   -0.47490E-04   -0.21354E-04  4164   0.183E-02    0.199E-02
RMM:   9    -0.645160112140E+03   -0.51573E-05   -0.53704E-05  3785   0.855E-03    0.117E-02
RMM:  10    -0.645160130061E+03   -0.17921E-04   -0.60117E-05  3831   0.866E-03    0.863E-03
RMM:  11    -0.645160177430E+03   -0.47369E-04   -0.24099E-05  3414   0.587E-03    0.602E-03
RMM:  12    -0.645160189343E+03   -0.11914E-04   -0.12440E-05  2762   0.332E-03    0.414E-03
RMM:  13    -0.645160199860E+03   -0.10517E-04   -0.85060E-06  2539   0.278E-03    0.238E-03
RMM:  14    -0.645160225228E+03   -0.25368E-04   -0.80579E-06  2716   0.286E-03    0.263E-03
RMM:  15    -0.645160228872E+03   -0.36439E-05   -0.28543E-06  2134   0.148E-03    0.161E-03
RMM:  16    -0.645160232273E+03   -0.34012E-05   -0.26352E-06  2136   0.170E-03    0.112E-03
RMM:  17    -0.645160237106E+03   -0.48334E-05   -0.17455E-06  2003   0.124E-03    0.859E-04
RMM:  18    -0.645160237988E+03   -0.88149E-06   -0.78220E-07  1480   0.789E-04
  19 F= -.64516024E+03 E0= -.64509601E+03  d E =-.376998E-01
 trial-energy change:   -0.037700  1 .order   -0.038036   -0.069016   -0.007056
 step:   1.9211(harm=  1.9137)  dis= 0.05615  next Energy=  -645.160654 (dE=-0.381E-01)
 bond charge predicted
       N       E                     dE             d eps       ncg     rms          rms(c)
DAV:   1    -0.645160006566E+03    0.23054E-03   -0.14435E-01  3776   0.647E-01    0.689E-02
RMM:   2    -0.645160620469E+03   -0.61390E-03   -0.65734E-03  3544   0.132E-01    0.368E-02
RMM:   3    -0.645160652338E+03   -0.31869E-04   -0.86720E-04  4115   0.535E-02    0.266E-02
RMM:   4    -0.645160649931E+03    0.24070E-05   -0.11711E-04  3879   0.206E-02    0.149E-02
RMM:   5    -0.645160653817E+03   -0.38866E-05   -0.34785E-05  3709   0.104E-02    0.132E-02
RMM:   6    -0.645160650900E+03    0.29176E-05   -0.94707E-06  2996   0.514E-03    0.403E-03
RMM:   7    -0.645160651071E+03   -0.17121E-06   -0.54755E-06  2658   0.328E-03
  20 F= -.64516065E+03 E0= -.64509647E+03  d E =-.381129E-01
 curvature:  -1.82 expect dE=-0.130E+00 dE for cont linesearch -0.428E-07
 trial: gam= 1.52215 g(F)=  0.714E-01 g(S)=  0.000E+00 ort = 0.424E-04 (trialstep = 0.540E+00)
 search vector abs. value=  0.248E+00
 bond charge predicted
       N       E                     dE             d eps       ncg     rms          rms(c)
DAV:   1    -0.645170520811E+03   -0.98699E-02   -0.28715E+00  3532   0.275E+00    0.305E-01
RMM:   2    -0.645183209543E+03   -0.12689E-01   -0.13961E-01  3562   0.604E-01    0.201E-01
RMM:   3    -0.645183801900E+03   -0.59236E-03   -0.17532E-02  4130   0.233E-01    0.143E-01
RMM:   4    -0.645183707727E+03    0.94173E-04   -0.24361E-03  4033   0.901E-02    0.779E-02
RMM:   5    -0.645183729329E+03   -0.21602E-04   -0.67054E-04  3939   0.432E-02    0.483E-02
RMM:   6    -0.645183738832E+03   -0.95025E-05   -0.25409E-04  3810   0.248E-02    0.269E-02
RMM:   7    -0.645183746434E+03   -0.76026E-05   -0.91286E-05  4093   0.125E-02    0.131E-02
RMM:   8    -0.645183769990E+03   -0.23555E-04   -0.57714E-05  3938   0.827E-03    0.773E-03
RMM:   9    -0.645183785307E+03   -0.15317E-04   -0.26079E-05  3382   0.486E-03    0.741E-03
RMM:  10    -0.645183804945E+03   -0.19639E-04   -0.14083E-05  2500   0.313E-03    0.341E-03
RMM:  11    -0.645183832328E+03   -0.27383E-04   -0.11478E-05  2735   0.313E-03    0.311E-03
RMM:  12    -0.645183839715E+03   -0.73867E-05   -0.54881E-06  2184   0.180E-03    0.190E-03
RMM:  13    -0.645183860687E+03   -0.20972E-04   -0.69185E-06  2583   0.256E-03    0.217E-03
RMM:  14    -0.645183877717E+03   -0.17029E-04   -0.40988E-06  2306   0.182E-03    0.155E-03
RMM:  15    -0.645183883098E+03   -0.53813E-05   -0.19119E-06  1995   0.121E-03    0.975E-04
RMM:  16    -0.645183898624E+03   -0.15526E-04   -0.59256E-06  2619   0.223E-03    0.170E-03
RMM:  17    -0.645183900522E+03   -0.18978E-05   -0.10398E-06  1944   0.102E-03    0.129E-03
RMM:  18    -0.645183901434E+03   -0.91232E-06   -0.58072E-07  1588   0.770E-04
  21 F= -.64518390E+03 E0= -.64511990E+03  d E =-.232504E-01
 trial-energy change:   -0.023250  1 .order   -0.023403   -0.038636   -0.008169
 step:   0.6912(harm=  0.6854)  dis= 0.04512  next Energy=  -645.185037 (dE=-0.244E-01)
 bond charge predicted
       N       E                     dE             d eps       ncg     rms          rms(c)
DAV:   1    -0.645183993028E+03   -0.92506E-04   -0.22362E-01  3640   0.763E-01    0.848E-02
RMM:   2    -0.645184955593E+03   -0.96257E-03   -0.10611E-02  3563   0.168E-01    0.555E-02
RMM:   3    -0.645184999646E+03   -0.44053E-04   -0.13122E-03  4101   0.647E-02    0.397E-02
RMM:   4    -0.645184997790E+03    0.18558E-05   -0.20241E-04  3975   0.256E-02    0.220E-02
RMM:   5    -0.645184998218E+03   -0.42769E-06   -0.52406E-05  3737   0.121E-02    0.129E-02
RMM:   6    -0.645184999883E+03   -0.16650E-05   -0.20730E-05  3289   0.693E-03    0.861E-03
RMM:   7    -0.645185000277E+03   -0.39342E-06   -0.75704E-06  2612   0.364E-03
  22 F= -.64518500E+03 E0= -.64512105E+03  d E =-.243492E-01
 curvature:  -1.19 expect dE=-0.311E-01 dE for cont linesearch -0.789E-08
 trial: gam= 0.37136 g(F)=  0.261E-01 g(S)=  0.000E+00 ort = 0.406E-04 (trialstep = 0.571E+00)
 search vector abs. value=  0.604E-01
 bond charge predicted
       N       E                     dE             d eps       ncg     rms          rms(c)
DAV:   1    -0.645196159740E+03   -0.11160E-01   -0.78331E-01  3636   0.123E+00    0.140E-01
RMM:   2    -0.645198202362E+03   -0.20426E-02   -0.22792E-02  3548   0.245E-01    0.663E-02
RMM:   3    -0.645198419218E+03   -0.21686E-03   -0.27945E-03  3998   0.959E-02    0.506E-02
RMM:   4    -0.645198474438E+03   -0.55220E-04   -0.51863E-04  4370   0.387E-02    0.380E-02
RMM:   5    -0.645198561324E+03   -0.86886E-04   -0.19975E-04  3624   0.193E-02    0.259E-02
RMM:   6    -0.645198581767E+03   -0.20443E-04   -0.78941E-05  3768   0.114E-02    0.104E-02
RMM:   7    -0.645198596456E+03   -0.14689E-04   -0.36160E-05  3123   0.577E-03    0.577E-03
RMM:   8    -0.645198612241E+03   -0.15785E-04   -0.24826E-05  3026   0.438E-03    0.582E-03
RMM:   9    -0.645198624717E+03   -0.12476E-04   -0.14404E-05  2473   0.322E-03    0.447E-03
RMM:  10    -0.645198637683E+03   -0.12966E-04   -0.91991E-06  2258   0.243E-03    0.251E-03
RMM:  11    -0.645198655918E+03   -0.18235E-04   -0.62258E-06  2283   0.196E-03    0.224E-03
RMM:  12    -0.645198667699E+03   -0.11781E-04   -0.39757E-06  2091   0.144E-03    0.119E-03
RMM:  13    -0.645198671018E+03   -0.33185E-05   -0.21670E-06  1508   0.983E-04    0.779E-04
RMM:  14    -0.645198686634E+03   -0.15616E-04   -0.45640E-06  2411   0.179E-03    0.177E-03
RMM:  15    -0.645198688733E+03   -0.20994E-05   -0.15608E-06  1904   0.110E-03    0.166E-03
RMM:  16    -0.645198688835E+03   -0.10253E-06   -0.61729E-07  1290   0.712E-04
  23 F= -.64519869E+03 E0= -.64513485E+03  d E =-.136886E-01
 ZBRENT: can't locate minimum, use default step
 trial-energy change:   -0.013689  1 .order   -0.013736   -0.014925   -0.012548
 step:   2.2826(harm=  3.5824)  dis= 0.05008  next Energy=  -645.231849 (dE=-0.468E-01)
 bond charge predicted
       N       E                     dE             d eps       ncg     rms          rms(c)
DAV:   1    -0.645205604501E+03   -0.69158E-02   -0.70584E+00  3500   0.368E+00    0.420E-01
RMM:   2    -0.645223581186E+03   -0.17977E-01   -0.20449E-01  3548   0.735E-01    0.196E-01
RMM:   3    -0.645225155416E+03   -0.15742E-02   -0.24983E-02  4010   0.287E-01    0.146E-01
RMM:   4    -0.645225433784E+03   -0.27837E-03   -0.44544E-03  4346   0.115E-01    0.111E-01
RMM:   5    -0.645225694327E+03   -0.26054E-03   -0.16482E-03  3636   0.566E-02    0.650E-02
RMM:   6    -0.645225774835E+03   -0.80509E-04   -0.59620E-04  3978   0.316E-02    0.339E-02
RMM:   7    -0.645225835818E+03   -0.60982E-04   -0.28072E-04  3966   0.162E-02    0.161E-02
RMM:   8    -0.645225910832E+03   -0.75014E-04   -0.20449E-04  3814   0.128E-02    0.160E-02
RMM:   9    -0.645225960359E+03   -0.49526E-04   -0.11342E-04  4250   0.839E-03    0.123E-02
RMM:  10    -0.645226011520E+03   -0.51161E-04   -0.74648E-05  3430   0.672E-03    0.745E-03
RMM:  11    -0.645226102363E+03   -0.90843E-04   -0.50824E-05  3385   0.559E-03    0.577E-03
RMM:  12    -0.645226132336E+03   -0.29973E-04   -0.28577E-05  2575   0.326E-03    0.346E-03
RMM:  13    -0.645226143443E+03   -0.11108E-04   -0.18364E-05  2274   0.255E-03    0.256E-03
RMM:  14    -0.645226207275E+03   -0.63832E-04   -0.28180E-05  3493   0.468E-03    0.469E-03
RMM:  15    -0.645226219963E+03   -0.12688E-04   -0.10485E-05  2450   0.235E-03    0.447E-03
RMM:  16    -0.645226222019E+03   -0.20559E-05   -0.53614E-06  2089   0.157E-03    0.298E-03
RMM:  17    -0.645226237128E+03   -0.15110E-04   -0.11064E-05  3071   0.334E-03    0.283E-03
RMM:  18    -0.645226239121E+03   -0.19931E-05   -0.26072E-06  2106   0.138E-03    0.203E-03
RMM:  19    -0.645226241907E+03   -0.27852E-05   -0.18931E-06  1935   0.113E-03    0.756E-04
RMM:  20    -0.645226247224E+03   -0.53177E-05   -0.22483E-06  2105   0.154E-03    0.117E-03
RMM:  21    -0.645226248787E+03   -0.15631E-05   -0.10447E-06  1518   0.881E-04    0.121E-03
RMM:  22    -0.645226249690E+03   -0.90230E-06   -0.81703E-07  1386   0.767E-04
  24 F= -.64522625E+03 E0= -.64516276E+03  d E =-.412494E-01
 curvature:  -3.37 expect dE=-0.509E-01 dE for cont linesearch -0.581E-02
 ZBRENT: increasing intervall
 opt :   5.7064  next Energy=  -645.220880 (dE=-0.359E-01)
 bond charge predicted
       N       E                     dE             d eps       ncg     rms          rms(c)
DAV:   1    -0.645135310675E+03    0.90938E-01   -0.28337E+01  3500   0.734E+00    0.837E-01
RMM:   2    -0.645207358459E+03   -0.72048E-01   -0.82083E-01  3547   0.147E+00    0.378E-01
RMM:   3    -0.645213642653E+03   -0.62842E-02   -0.10108E-01  4020   0.576E-01    0.273E-01
[...]
RMM:   3    -0.645307130248E+03   -0.36382E-03   -0.48811E-03  4123   0.118E-01    0.586E-02
RMM:   4    -0.645307191904E+03   -0.61656E-04   -0.66868E-04  4286   0.442E-02    0.431E-02
RMM:   5    -0.645307296464E+03   -0.10456E-03   -0.32121E-04  3660   0.232E-02    0.227E-02
RMM:   6    -0.645307333343E+03   -0.36880E-04   -0.12044E-04  4003   0.128E-02    0.146E-02
RMM:   7    -0.645307350496E+03   -0.17153E-04   -0.58167E-05  3297   0.648E-03    0.801E-03
RMM:   8    -0.645307369811E+03   -0.19315E-04   -0.46346E-05  3503   0.578E-03    0.633E-03
RMM:   9    -0.645307388645E+03   -0.18833E-04   -0.25898E-05  3132   0.426E-03    0.674E-03
RMM:  10    -0.645307401034E+03   -0.12389E-04   -0.15890E-05  2410   0.300E-03    0.349E-03
RMM:  11    -0.645307419103E+03   -0.18069E-04   -0.10857E-05  2499   0.281E-03    0.267E-03
RMM:  12    -0.645307436196E+03   -0.17093E-04   -0.68315E-06  2298   0.217E-03    0.277E-03
RMM:  13    -0.645307438600E+03   -0.24040E-05   -0.36181E-06  2066   0.141E-03    0.141E-03
RMM:  14    -0.645307455316E+03   -0.16716E-04   -0.58545E-06  2509   0.241E-03    0.193E-03
RMM:  15    -0.645307460194E+03   -0.48779E-05   -0.22524E-06  2081   0.141E-03    0.206E-03
RMM:  16    -0.645307460863E+03   -0.66939E-06   -0.11942E-06  1981   0.105E-03
  31 F= -.64530746E+03 E0= -.64524518E+03  d E =-.118264E-01
 ZBRENT: can't locate minimum, use default step
 trial-energy change:   -0.011826  1 .order   -0.011889   -0.013274   -0.010505
 step:   1.2726(harm=  1.5255)  dis= 0.04766  next Energy=  -645.327457 (dE=-0.318E-01)
 bond charge predicted
       N       E                     dE             d eps       ncg     rms          rms(c)
DAV:   1    -0.645290412410E+03    0.17048E-01   -0.11716E+01  3516   0.439E+00    0.518E-01
RMM:   2    -0.645321213501E+03   -0.30801E-01   -0.33560E-01  3545   0.895E-01    0.244E-01
RMM:   3    -0.645324017331E+03   -0.28038E-02   -0.44056E-02  4127   0.355E-01    0.176E-01
RMM:   4    -0.645324225365E+03   -0.20803E-03   -0.58381E-03  4294   0.132E-01    0.129E-01
RMM:   5    -0.645324514565E+03   -0.28920E-03   -0.24822E-03  3665   0.650E-02    0.672E-02
RMM:   6    -0.645324690255E+03   -0.17569E-03   -0.97043E-04  4124   0.380E-02    0.446E-02
RMM:   7    -0.645324766781E+03   -0.76526E-04   -0.46223E-04  4256   0.193E-02    0.222E-02
RMM:   8    -0.645324846074E+03   -0.79293E-04   -0.34597E-04  4027   0.151E-02    0.184E-02
RMM:   9    -0.645324928753E+03   -0.82679E-04   -0.19949E-04  4366   0.114E-02    0.177E-02
RMM:  10    -0.645324991065E+03   -0.62312E-04   -0.12258E-04  3656   0.796E-03    0.974E-03
RMM:  11    -0.645325108352E+03   -0.11729E-03   -0.93046E-05  4209   0.848E-03    0.910E-03
RMM:  12    -0.645325186422E+03   -0.78070E-04   -0.48993E-05  3384   0.545E-03    0.886E-03
RMM:  13    -0.645325182397E+03    0.40254E-05   -0.31922E-05  3257   0.434E-03    0.385E-03
RMM:  14    -0.645325260091E+03   -0.77694E-04   -0.46671E-05  4567   0.715E-03    0.672E-03
RMM:  15    -0.645325283657E+03   -0.23566E-04   -0.15133E-05  2604   0.315E-03    0.620E-03
RMM:  16    -0.645325285494E+03   -0.18368E-05   -0.91552E-06  2405   0.259E-03    0.354E-03
RMM:  17    -0.645325313534E+03   -0.28040E-04   -0.19698E-05  3665   0.447E-03    0.400E-03
RMM:  18    -0.645325318257E+03   -0.47228E-05   -0.39748E-06  2200   0.176E-03    0.211E-03
RMM:  19    -0.645325321029E+03   -0.27715E-05   -0.24104E-06  2056   0.135E-03    0.107E-03
RMM:  20    -0.645325329751E+03   -0.87226E-05   -0.28164E-06  2197   0.166E-03    0.917E-04
RMM:  21    -0.645325332942E+03   -0.31902E-05   -0.12940E-06  1682   0.988E-04    0.109E-03
RMM:  22    -0.645325334285E+03   -0.13437E-05   -0.78680E-07  1358   0.799E-04    0.109E-03
RMM:  23    -0.645325335434E+03   -0.11485E-05   -0.76174E-07  1896   0.899E-04    0.766E-04
RMM:  24    -0.645325335610E+03   -0.17616E-06   -0.34786E-07   860   0.556E-04
  32 F= -.64532534E+03 E0= -.64526329E+03  d E =-.297012E-01
 curvature:  -4.19 expect dE=-0.297E-01 dE for cont linesearch -0.405E-03
 ZBRENT: extrapolating
 opt :   1.4354  next Energy=  -645.325727 (dE=-0.301E-01)
 bond charge predicted
       N       E                     dE             d eps       ncg     rms          rms(c)
DAV:   1    -0.645324544749E+03    0.79068E-03   -0.33951E-01  3720   0.749E-01    0.895E-02
RMM:   2    -0.645325479844E+03   -0.93509E-03   -0.98742E-03  3548   0.153E-01    0.407E-02
RMM:   3    -0.645325586779E+03   -0.10694E-03   -0.12790E-03  4117   0.608E-02    0.294E-02
RMM:   4    -0.645325613222E+03   -0.26443E-04   -0.19284E-04  4274   0.232E-02    0.220E-02
RMM:   5    -0.645325648965E+03   -0.35743E-04   -0.87254E-05  3588   0.120E-02    0.120E-02
RMM:   6    -0.645325660887E+03   -0.11922E-04   -0.33872E-05  3508   0.672E-03    0.748E-03
RMM:   7    -0.645325666692E+03   -0.58055E-05   -0.16642E-05  2449   0.353E-03    0.417E-03
RMM:   8    -0.645325673193E+03   -0.65012E-05   -0.12732E-05  2399   0.309E-03    0.331E-03
RMM:   9    -0.645325679678E+03   -0.64844E-05   -0.74332E-06  2199   0.242E-03    0.349E-03
RMM:  10    -0.645325684732E+03   -0.50544E-05   -0.47972E-06  2117   0.176E-03    0.164E-03
RMM:  11    -0.645325690122E+03   -0.53898E-05   -0.29002E-06  2077   0.139E-03    0.127E-03
RMM:  12    -0.645325695224E+03   -0.51020E-05   -0.20500E-06  1962   0.117E-03    0.118E-03
RMM:  13    -0.645325696206E+03   -0.98186E-06   -0.10542E-06  1224   0.780E-04
  33 F= -.64532570E+03 E0= -.64526370E+03  d E =-.300618E-01
 curvature:  -4.05 expect dE=-0.274E-01 dE for cont linesearch -0.501E-06
 trial: gam= 0.01908 g(F)=  0.675E-02 g(S)=  0.000E+00 ort =-0.172E-03 (trialstep = 0.542E+00)
 search vector abs. value=  0.683E-02
 bond charge predicted
       N       E                     dE             d eps       ncg     rms          rms(c)
DAV:   1    -0.645328870888E+03   -0.31757E-02   -0.48160E-02  3648   0.302E-01    0.389E-02
RMM:   2    -0.645329028921E+03   -0.15803E-03   -0.18288E-03  3536   0.739E-02    0.249E-02
RMM:   3    -0.645329046004E+03   -0.17083E-04   -0.27453E-04  4100   0.296E-02    0.188E-02
RMM:   4    -0.645329048513E+03   -0.25097E-05   -0.44827E-05  3979   0.119E-02    0.123E-02
RMM:   5    -0.645329052627E+03   -0.41137E-05   -0.18323E-05  3423   0.677E-03    0.815E-03
RMM:   6    -0.645329053955E+03   -0.13282E-05   -0.69676E-06  2739   0.404E-03    0.433E-03
RMM:   7    -0.645329055458E+03   -0.15033E-05   -0.26865E-06  2104   0.210E-03    0.203E-03
RMM:   8    -0.645329057321E+03   -0.18630E-05   -0.20947E-06  2095   0.170E-03    0.201E-03
RMM:   9    -0.645329058416E+03   -0.10945E-05   -0.11468E-06  2065   0.125E-03    0.117E-03
RMM:  10    -0.645329059470E+03   -0.10540E-05   -0.60512E-07  1702   0.834E-04    0.724E-04
RMM:  11    -0.645329060252E+03   -0.78195E-06   -0.40995E-07  1515   0.717E-04
  34 F= -.64532906E+03 E0= -.64526710E+03  d E =-.336405E-02
 ZBRENT: can't locate minimum, use default step
 trial-energy change:   -0.003364  1 .order   -0.003366   -0.003656   -0.003076
 step:   2.1664(harm=  3.4140)  dis= 0.02057  next Energy=  -645.337220 (dE=-0.115E-01)
 bond charge predicted
       N       E                     dE             d eps       ncg     rms          rms(c)
DAV:   1    -0.645334097647E+03   -0.50382E-02   -0.43408E-01  3596   0.906E-01    0.117E-01
RMM:   2    -0.645335513385E+03   -0.14157E-02   -0.16535E-02  3541   0.222E-01    0.757E-02
RMM:   3    -0.645335656749E+03   -0.14336E-03   -0.24715E-03  4111   0.888E-02    0.573E-02
RMM:   4    -0.645335661014E+03   -0.42652E-05   -0.39191E-04  4140   0.356E-02    0.370E-02
RMM:   5    -0.645335680260E+03   -0.19247E-04   -0.16332E-04  3650   0.203E-02    0.216E-02
RMM:   6    -0.645335689332E+03   -0.90717E-05   -0.58637E-05  3955   0.117E-02    0.145E-02
RMM:   7    -0.645335694362E+03   -0.50297E-05   -0.21622E-05  3262   0.572E-03    0.601E-03
RMM:   8    -0.645335705032E+03   -0.10670E-04   -0.19882E-05  3408   0.508E-03    0.603E-03
RMM:   9    -0.645335710349E+03   -0.53165E-05   -0.85901E-06  2457   0.322E-03    0.373E-03
RMM:  10    -0.645335715908E+03   -0.55589E-05   -0.53058E-06  2216   0.242E-03    0.212E-03
RMM:  11    -0.645335723635E+03   -0.77278E-05   -0.36422E-06  2188   0.208E-03    0.240E-03
RMM:  12    -0.645335729732E+03   -0.60962E-05   -0.20258E-06  2088   0.135E-03    0.152E-03
RMM:  13    -0.645335731653E+03   -0.19211E-05   -0.15650E-06  2046   0.130E-03    0.766E-04
RMM:  14    -0.645335734547E+03   -0.28944E-05   -0.11256E-06  2010   0.116E-03    0.102E-03
RMM:  15    -0.645335737543E+03   -0.29957E-05   -0.85213E-07  1671   0.894E-04    0.957E-04
RMM:  16    -0.645335737625E+03   -0.82566E-07   -0.37896E-07  1480   0.667E-04
  35 F= -.64533574E+03 E0= -.64527390E+03  d E =-.100414E-01
 curvature:  -1.40 expect dE=-0.144E-01 dE for cont linesearch -0.133E-02
 ZBRENT: increasing intervall
 opt :   5.4161  next Energy=  -645.333818 (dE=-0.812E-02)
 bond charge predicted
       N       E                     dE             d eps       ncg     rms          rms(c)
DAV:   1    -0.645327157258E+03    0.85803E-02   -0.17386E+00  3532   0.182E+00    0.236E-01
RMM:   2    -0.645332823087E+03   -0.56658E-02   -0.66843E-02  3542   0.447E-01    0.155E-01
RMM:   3    -0.645333349384E+03   -0.52630E-03   -0.99350E-03  4109   0.178E-01    0.118E-01
RMM:   4    -0.645333323308E+03    0.26076E-04   -0.15653E-03  4141   0.713E-02    0.761E-02
RMM:   5    -0.645333364687E+03   -0.41379E-04   -0.67167E-04  3647   0.416E-02    0.436E-02
RMM:   6    -0.645333389002E+03   -0.24315E-04   -0.23619E-04  4130   0.238E-02    0.296E-02
RMM:   7    -0.645333396968E+03   -0.79660E-05   -0.84548E-05  3703   0.115E-02    0.121E-02
RMM:   8    -0.645333426050E+03   -0.29082E-04   -0.78048E-05  3718   0.101E-02    0.121E-02
RMM:   9    -0.645333440784E+03   -0.14734E-04   -0.35590E-05  3924   0.636E-03    0.774E-03
RMM:  10    -0.645333453837E+03   -0.13052E-04   -0.23339E-05  3262   0.505E-03    0.441E-03
RMM:  11    -0.645333475723E+03   -0.21886E-04   -0.15598E-05  3243   0.433E-03    0.533E-03
RMM:  12    -0.645333491172E+03   -0.15449E-04   -0.70878E-06  2269   0.233E-03    0.355E-03
RMM:  13    -0.645333496706E+03   -0.55338E-05   -0.81937E-06  2730   0.289E-03    0.169E-03
RMM:  14    -0.645333505049E+03   -0.83429E-05   -0.36653E-06  2156   0.199E-03    0.211E-03
RMM:  15    -0.645333516318E+03   -0.11269E-04   -0.30160E-06  2143   0.154E-03    0.180E-03
RMM:  16    -0.645333518709E+03   -0.23913E-05   -0.21659E-06  2079   0.158E-03    0.420E-04
RMM:  17    -0.645333522550E+03   -0.38404E-05   -0.16722E-06  2029   0.127E-03    0.811E-04
RMM:  18    -0.645333522869E+03   -0.31951E-06   -0.59788E-07  1379   0.721E-04
  36 F= -.64533352E+03 E0= -.64527195E+03  d E =-.782666E-02
 curvature:   2.03 expect dE= 0.133E+00 dE for cont linesearch  0.462E-02
 ZBRENT: bracketing found
 ZBRENT: interpolating
 opt :   3.4400  next Energy=  -645.337358 (dE=-0.117E-01)
 bond charge predicted
       N       E                     dE             d eps       ncg     rms          rms(c)
DAV:   1    -0.645335059450E+03   -0.15369E-02   -0.64354E-01  3596   0.111E+00    0.143E-01
RMM:   2    -0.645337157313E+03   -0.20979E-02   -0.24918E-02  3539   0.273E-01    0.952E-02
RMM:   3    -0.645337350431E+03   -0.19312E-03   -0.37272E-03  4113   0.109E-01    0.719E-02
RMM:   4    -0.645337332947E+03    0.17484E-04   -0.57804E-04  4121   0.435E-02    0.461E-02
RMM:   5    -0.645337341390E+03   -0.84431E-05   -0.24044E-04  3641   0.249E-02    0.270E-02
RMM:   6    -0.645337347512E+03   -0.61224E-05   -0.84800E-05  3981   0.144E-02    0.180E-02
RMM:   7    -0.645337348459E+03   -0.94644E-06   -0.29858E-05  3481   0.701E-03    0.733E-03
RMM:   8    -0.645337357624E+03   -0.91653E-05   -0.27184E-05  3534   0.604E-03    0.742E-03
RMM:   9    -0.645337362311E+03   -0.46867E-05   -0.12120E-05  2844   0.385E-03    0.448E-03
RMM:  10    -0.645337367011E+03   -0.47007E-05   -0.73759E-06  2447   0.291E-03    0.252E-03
RMM:  11    -0.645337373725E+03   -0.67132E-05   -0.50609E-06  2320   0.251E-03    0.297E-03
RMM:  12    -0.645337378599E+03   -0.48739E-05   -0.24452E-06  2121   0.150E-03    0.189E-03
RMM:  13    -0.645337380065E+03   -0.14660E-05   -0.22121E-06  2066   0.158E-03    0.925E-04
RMM:  14    -0.645337381949E+03   -0.18844E-05   -0.14156E-06  2029   0.134E-03    0.122E-03
RMM:  15    -0.645337383913E+03   -0.19643E-05   -0.85717E-07  1778   0.958E-04    0.116E-03
RMM:  16    -0.645337384036E+03   -0.12306E-06   -0.52390E-07  1748   0.772E-04
  37 F= -.64533738E+03 E0= -.64527564E+03  d E =-.116878E-01
 curvature:  -0.71 expect dE=-0.172E-01 dE for cont linesearch -0.176E-09
 trial: gam= 3.58019 g(F)=  0.242E-01 g(S)=  0.000E+00 ort =-0.130E-05 (trialstep = 0.686E-01)
 search vector abs. value=  0.112E+00
 bond charge predicted
       N       E                     dE             d eps       ncg     rms          rms(c)
DAV:   1    -0.645338883062E+03   -0.14991E-02   -0.23054E-02  3744   0.238E-01    0.257E-02
RMM:   2    -0.645338973799E+03   -0.90737E-04   -0.97462E-04  3533   0.506E-02    0.148E-02
RMM:   3    -0.645338978593E+03   -0.47934E-05   -0.12917E-04  3977   0.206E-02    0.106E-02
RMM:   4    -0.645338978806E+03   -0.21312E-06   -0.19333E-05  3145   0.799E-03    0.769E-03
RMM:   5    -0.645338978964E+03   -0.15788E-06   -0.54274E-06  2522   0.393E-03
  38 F= -.64533898E+03 E0= -.64527728E+03  d E =-.159493E-02
 ZBRENT: can't locate minimum, use default step
 trial-energy change:   -0.001595  1 .order   -0.001599   -0.001658   -0.001540
 step:   0.2742(harm=  0.9562)  dis= 0.01079  next Energy=  -645.348950 (dE=-0.116E-01)
 bond charge predicted
       N       E                     dE             d eps       ncg     rms          rms(c)
DAV:   1    -0.645342071837E+03   -0.30930E-02   -0.20673E-01  3600   0.712E-01    0.779E-02
RMM:   2    -0.645342890570E+03   -0.81873E-03   -0.87742E-03  3544   0.152E-01    0.444E-02
RMM:   3    -0.645342940727E+03   -0.50158E-04   -0.11968E-03  4107   0.621E-02    0.326E-02
RMM:   4    -0.645342940835E+03   -0.10756E-06   -0.15679E-04  4252   0.234E-02    0.232E-02
RMM:   5    -0.645342943342E+03   -0.25068E-05   -0.54366E-05  3598   0.116E-02    0.146E-02
RMM:   6    -0.645342943822E+03   -0.47978E-06   -0.21088E-05  3554   0.692E-03    0.722E-03
RMM:   7    -0.645342945186E+03   -0.13640E-05   -0.77689E-06  2588   0.365E-03    0.343E-03
RMM:   8    -0.645342948446E+03   -0.32604E-05   -0.54612E-06  2407   0.265E-03    0.322E-03
RMM:   9    -0.645342950920E+03   -0.24736E-05   -0.31961E-06  2143   0.202E-03    0.205E-03
RMM:  10    -0.645342953609E+03   -0.26893E-05   -0.17139E-06  2071   0.134E-03    0.121E-03
RMM:  11    -0.645342957888E+03   -0.42792E-05   -0.13861E-06  2080   0.125E-03    0.144E-03
RMM:  12    -0.645342962484E+03   -0.45954E-05   -0.10728E-06  1934   0.108E-03    0.108E-03
RMM:  13    -0.645342963362E+03   -0.87867E-06   -0.48975E-07  1451   0.720E-04
  39 F= -.64534296E+03 E0= -.64528139E+03  d E =-.557933E-02
 curvature:  -0.91 expect dE=-0.109E-01 dE for cont linesearch -0.221E-02
 ZBRENT: increasing intervall
 opt :   0.6855  next Energy=  -645.347316 (dE=-0.993E-02)
 bond charge predicted
       N       E                     dE             d eps       ncg     rms          rms(c)
DAV:   1    -0.645343816376E+03   -0.85389E-03   -0.82901E-01  3552   0.142E+00    0.155E-01
RMM:   2    -0.645347078912E+03   -0.32625E-02   -0.34954E-02  3547   0.304E-01    0.868E-02
RMM:   3    -0.645347280189E+03   -0.20128E-03   -0.47570E-03  4098   0.124E-01    0.637E-02
RMM:   4    -0.645347268553E+03    0.11636E-04   -0.59859E-04  4282   0.462E-02    0.454E-02
RMM:   5    -0.645347276141E+03   -0.75884E-05   -0.21636E-04  3674   0.234E-02    0.316E-02
RMM:   6    -0.645347269080E+03    0.70609E-05   -0.82171E-05  3914   0.138E-02    0.127E-02
RMM:   7    -0.645347272685E+03   -0.36043E-05   -0.28694E-05  3612   0.698E-03    0.687E-03
RMM:   8    -0.645347278497E+03   -0.58126E-05   -0.17001E-05  3311   0.443E-03    0.671E-03
RMM:   9    -0.645347286641E+03   -0.81433E-05   -0.14299E-05  3388   0.414E-03    0.413E-03
RMM:  10    -0.645347292184E+03   -0.55436E-05   -0.61886E-06  2360   0.252E-03    0.248E-03
RMM:  11    -0.645347300674E+03   -0.84902E-05   -0.48121E-06  2320   0.230E-03    0.269E-03
RMM:  12    -0.645347315653E+03   -0.14978E-04   -0.39169E-06  2332   0.208E-03    0.231E-03
RMM:  13    -0.645347318683E+03   -0.30304E-05   -0.17877E-06  2063   0.132E-03    0.120E-03
RMM:  14    -0.645347327210E+03   -0.85269E-05   -0.19761E-06  2138   0.154E-03    0.127E-03
RMM:  15    -0.645347345057E+03   -0.17847E-04   -0.43545E-06  2452   0.191E-03    0.167E-03
RMM:  16    -0.645347345342E+03   -0.28519E-06   -0.60467E-07  1726   0.841E-04
  40 F= -.64534735E+03 E0= -.64528603E+03  d E =-.996131E-02
 curvature:  -1.78 expect dE=-0.134E-01 dE for cont linesearch -0.386E-03
 ZBRENT: extrapolating
 opt :   0.8601  next Energy=  -645.347775 (dE=-0.104E-01)
 bond charge predicted
       N       E                     dE             d eps       ncg     rms          rms(c)
DAV:   1    -0.645347152533E+03    0.19252E-03   -0.14926E-01  3616   0.604E-01    0.661E-02
RMM:   2    -0.645347738085E+03   -0.58555E-03   -0.62975E-03  3545   0.129E-01    0.369E-02
RMM:   3    -0.645347773651E+03   -0.35565E-04   -0.85383E-04  4106   0.526E-02    0.271E-02
RMM:   4    -0.645347774402E+03   -0.75181E-06   -0.11353E-04  4178   0.198E-02    0.195E-02
RMM:   5    -0.645347777332E+03   -0.29295E-05   -0.38819E-05  3521   0.994E-03    0.146E-02
RMM:   6    -0.645347775720E+03    0.16116E-05   -0.16235E-05  3430   0.609E-03    0.502E-03
RMM:   7    -0.645347776969E+03   -0.12488E-05   -0.55706E-06  2433   0.314E-03    0.287E-03
RMM:   8    -0.645347778646E+03   -0.16769E-05   -0.32222E-06  2146   0.202E-03    0.279E-03
RMM:   9    -0.645347780878E+03   -0.22320E-05   -0.26258E-06  2124   0.186E-03    0.161E-03
RMM:  10    -0.645347782862E+03   -0.19841E-05   -0.12501E-06  2026   0.117E-03    0.110E-03
RMM:  11    -0.645347784777E+03   -0.19150E-05   -0.83365E-07  1942   0.945E-04    0.986E-04
RMM:  12    -0.645347788243E+03   -0.34656E-05   -0.80064E-07  1876   0.945E-04    0.853E-04
RMM:  13    -0.645347788750E+03   -0.50713E-06   -0.32919E-07  1101   0.603E-04
  41 F= -.64534779E+03 E0= -.64528658E+03  d E =-.104047E-01
 curvature:  -1.98 expect dE=-0.201E-01 dE for cont linesearch -0.109E-05
 trial: gam= 0.40750 g(F)=  0.102E-01 g(S)=  0.000E+00 ort = 0.248E-03 (trialstep = 0.227E+00)
 search vector abs. value=  0.289E-01
 bond charge predicted
       N       E                     dE             d eps       ncg     rms          rms(c)
DAV:   1    -0.645349899675E+03   -0.21114E-02   -0.41022E-02  3664   0.241E-01    0.339E-02
RMM:   2    -0.645349997926E+03   -0.98251E-04   -0.11312E-03  3549   0.550E-02    0.178E-02
RMM:   3    -0.645350012146E+03   -0.14219E-04   -0.17892E-04  4031   0.228E-02    0.129E-02
RMM:   4    -0.645350015825E+03   -0.36796E-05   -0.26849E-05  3858   0.898E-03    0.852E-03
RMM:   5    -0.645350021462E+03   -0.56369E-05   -0.11575E-05  3131   0.492E-03    0.854E-03
RMM:   6    -0.645350022594E+03   -0.11321E-05   -0.57029E-06  2377   0.328E-03    0.204E-03
RMM:   7    -0.645350023967E+03   -0.13722E-05   -0.24380E-06  2110   0.176E-03    0.147E-03
RMM:   8    -0.645350024890E+03   -0.92372E-06   -0.14637E-06  2079   0.122E-03
  42 F= -.64535002E+03 E0= -.64528891E+03  d E =-.223614E-02
 ZBRENT: can't locate minimum, use default step
 trial-energy change:   -0.002236  1 .order   -0.002244   -0.002326   -0.002161
 step:   0.9074(harm=  3.1949)  dis= 0.01580  next Energy=  -645.364171 (dE=-0.164E-01)
 bond charge predicted
srun: Job step aborted: Waiting up to 32 seconds for job step to finish.
slurmstepd: error: *** JOB 67423211 ON b01r3n19 CANCELLED AT 2024-07-18T13:03:21 ***
slurmstepd: error: *** STEP 67423211.0 ON b01r3n19 CANCELLED AT 2024-07-18T13:03:21 ***
