srun: ROUTE: split_hostlist: hl=b01r3n19 tree_width 0
 running on    4 total cores
 distrk:  each k-point on    1 cores,    4 groups
 distr:  one band on    1 cores,    1 groups
 HIP runtime initialized ...    4 DCUs will be used
 Created    4 streams on each DCU
 vasp.6.3.2 27Jun22 (build Mar 15 2023 15:45:48) complex                        
  
 POSCAR found type information on POSCAR C F SiK 
 POSCAR found :  4 types and      98 ions
 Reading from existing POTCAR
 scaLAPACK will be used selectively (only on CPU)
 Reading from existing POTCAR
 LDA part: xc-table for Pade appr. of Perdew
 POSCAR found type information on POSCAR C F SiK 
 POSCAR found :  4 types and      98 ions
 -----------------------------------------------------------------------------
|                                                                             |
|           W    W    AA    RRRRR   N    N  II  N    N   GGGG   !!!           |
|           W    W   A  A   R    R  NN   N  II  NN   N  G    G  !!!           |
|           W    W  A    A  R    R  N N  N  II  N N  N  G       !!!           |
|           W WW W  AAAAAA  RRRRR   N  N N  II  N  N N  G  GGG   !            |
|           WW  WW  A    A  R   R   N   NN  II  N   NN  G    G                |
|           W    W  A    A  R    R  N    N  II  N    N   GGGG   !!!           |
|                                                                             |
|     The distance between some ions is very small. Please check the          |
|     nearest-neighbor list in the OUTCAR file.                               |
|     I HOPE YOU KNOW WHAT YOU ARE DOING!                                     |
|                                                                             |
 -----------------------------------------------------------------------------

 Optimize memory usage for KPAR
 POSCAR, INCAR and KPOINTS ok, starting setup
 FFT: planning ... GRIDC
 FFT: planning ... GRID_SOFT
 FFT: planning ... GRID
 WAVECAR not read
 entering main loop
       N       E                     dE             d eps       ncg     rms          rms(c)
DAV:   1     0.217904469539E+04    0.21790E+04   -0.16871E+05  3500   0.137E+03
DAV:   2    -0.366677754359E+03   -0.25457E+04   -0.24337E+04  4402   0.271E+02
DAV:   3    -0.685751195075E+03   -0.31907E+03   -0.31162E+03  4520   0.893E+01
DAV:   4    -0.703978488218E+03   -0.18227E+02   -0.18074E+02  4600   0.228E+01
DAV:   5    -0.704902933513E+03   -0.92445E+00   -0.92325E+00  5424   0.453E+00    0.453E+01
RMM:   6    -0.626674338429E+03    0.78229E+02   -0.24431E+02  3516   0.212E+01    0.170E+01
RMM:   7    -0.629116779255E+03   -0.24424E+01   -0.93214E+01  3728   0.145E+01    0.119E+01
RMM:   8    -0.627458048924E+03    0.16587E+01   -0.10770E+01  3765   0.598E+00    0.817E+00
RMM:   9    -0.629586891789E+03   -0.21288E+01   -0.91516E+00  3617   0.459E+00    0.119E+01
RMM:  10    -0.628388424026E+03    0.11985E+01   -0.22100E+00  4135   0.242E+00    0.106E+01
RMM:  11    -0.626492273276E+03    0.18962E+01   -0.28046E+00  3780   0.217E+00    0.252E+00
RMM:  12    -0.626482612965E+03    0.96603E-02   -0.58965E-01  4423   0.113E+00    0.206E+00
RMM:  13    -0.626435505233E+03    0.47108E-01   -0.16278E-01  4697   0.591E-01    0.118E+00
RMM:  14    -0.626435713268E+03   -0.20803E-03   -0.75155E-02  3687   0.369E-01    0.130E+00
RMM:  15    -0.626424255795E+03    0.11457E-01   -0.14679E-02  4378   0.203E-01    0.278E-01
RMM:  16    -0.626434869768E+03   -0.10614E-01   -0.25547E-02  3832   0.223E-01    0.716E-01
RMM:  17    -0.626467281127E+03   -0.32411E-01   -0.23695E-02  3891   0.212E-01    0.211E+00
RMM:  18    -0.626435756010E+03    0.31525E-01   -0.15998E-02  3964   0.166E-01    0.554E-01
RMM:  19    -0.626440807766E+03   -0.50518E-02   -0.14319E-02  4270   0.153E-01    0.396E-01
RMM:  20    -0.626442528329E+03   -0.17206E-02   -0.35919E-03  4961   0.797E-02    0.349E-01
RMM:  21    -0.626443194404E+03   -0.66607E-03   -0.28300E-03  4253   0.554E-02    0.850E-02
RMM:  22    -0.626444299282E+03   -0.11049E-02   -0.13992E-03  4093   0.507E-02    0.473E-02
RMM:  23    -0.626445020607E+03   -0.72133E-03   -0.48281E-04  4821   0.313E-02    0.550E-02
RMM:  24    -0.626446358525E+03   -0.13379E-02   -0.52217E-04  4269   0.250E-02    0.372E-02
RMM:  25    -0.626446782564E+03   -0.42404E-03   -0.30152E-04  4238   0.220E-02    0.300E-02
RMM:  26    -0.626446907515E+03   -0.12495E-03   -0.77728E-05  5340   0.122E-02    0.192E-02
RMM:  27    -0.626447132724E+03   -0.22521E-03   -0.68171E-05  4364   0.105E-02    0.221E-02
RMM:  28    -0.626447185241E+03   -0.52518E-04   -0.20060E-05  3877   0.586E-03    0.705E-03
RMM:  29    -0.626447210117E+03   -0.24875E-04   -0.11128E-05  3571   0.409E-03    0.956E-03
RMM:  30    -0.626447232639E+03   -0.22522E-04   -0.10133E-05  3765   0.424E-03    0.187E-03
RMM:  31    -0.626447244967E+03   -0.12328E-04   -0.38888E-06  2703   0.262E-03    0.151E-03
 num prob RMM:  32    -0.626447250807E+03   -0.58401E-05   -0.22183E-06  2420   0.181E-03    0.123E-03
 num prob  num prob RMM:  33    -0.626447252281E+03   -0.14744E-05   -0.94763E-07  1868   0.131E-03    0.751E-04
 num prob RMM:  34    -0.626447253844E+03   -0.15621E-05   -0.17255E-06  2252   0.136E-03    0.754E-04
 num prob  num prob RMM:  35    -0.626447254073E+03   -0.22904E-06   -0.71430E-07  1627   0.101E-03
   1 F= -.62644725E+03 E0= -.62638361E+03  d E =-.626447E+03
 curvature:   0.00 expect dE= 0.000E+00 dE for cont linesearch  0.000E+00
 trial: gam= 0.00000 g(F)=  0.326E+03 g(S)=  0.000E+00 ort = 0.000E+00 (trialstep = 0.100E+01)
 search vector abs. value=  0.326E+03
 bond charge predicted
       N       E                     dE             d eps       ncg     rms          rms(c)
DAV:   1    -0.571225969515E+03    0.55221E+02   -0.64647E+03  3892   0.880E+01    0.172E+01
RMM:   2    -0.625494157444E+03   -0.54268E+02   -0.61504E+02  4417   0.298E+01    0.829E+00
RMM:   3    -0.636849239218E+03   -0.11355E+02   -0.12222E+02  4376   0.112E+01    0.131E+01
RMM:   4    -0.637430297765E+03   -0.58106E+00   -0.29791E+01  5268   0.486E+00    0.110E+01
RMM:   5    -0.635260881232E+03    0.21694E+01   -0.13168E+01  5533   0.335E+00    0.510E+00
RMM:   6    -0.634607116382E+03    0.65376E+00   -0.33727E+00  6009   0.175E+00    0.255E+00
RMM:   7    -0.634514753813E+03    0.92363E-01   -0.11353E+00  5973   0.103E+00    0.237E+00
RMM:   8    -0.634581208833E+03   -0.66455E-01   -0.75674E-01  5870   0.972E-01    0.254E+00
RMM:   9    -0.634611910270E+03   -0.30701E-01   -0.32956E-01  5955   0.685E-01    0.498E+00
RMM:  10    -0.634669582096E+03   -0.57672E-01   -0.31298E-01  6109   0.593E-01    0.313E+00
RMM:  11    -0.634580690994E+03    0.88891E-01   -0.21631E-01  6080   0.507E-01    0.108E+00
RMM:  12    -0.634597563446E+03   -0.16872E-01   -0.14357E-01  6086   0.390E-01    0.171E+00
WARNING in EDDRMM: call to ZHEGV failed, returncode =   6  3    104
RMM:  13    -0.634588506969E+03    0.90565E-02   -0.65673E-03  6240   0.263E-01    0.549E-01
RMM:  14    -0.634609543773E+03   -0.21037E-01   -0.58962E-02  6070   0.267E-01    0.410E-01
RMM:  15    -0.634613638530E+03   -0.40948E-02    0.68868E-03  6098   0.190E-01    0.665E-01
RMM:  16    -0.634624565275E+03   -0.10927E-01   -0.25553E-02  6147   0.156E-01    0.107E+00
RMM:  17    -0.634643288971E+03   -0.18724E-01   -0.31670E-02  6158   0.159E-01    0.152E+00
RMM:  18    -0.634638385274E+03    0.49037E-02    0.10976E-03  6239   0.108E-01    0.146E+00
RMM:  19    -0.634630328863E+03    0.80564E-02   -0.79790E-03  6174   0.909E-02    0.129E+00
RMM:  20    -0.634621506621E+03    0.88222E-02   -0.88219E-03  6102   0.897E-02    0.986E-01
RMM:  21    -0.634617183710E+03    0.43229E-02   -0.10460E-02  6122   0.790E-02    0.680E-01
RMM:  22    -0.634616329461E+03    0.85425E-03   -0.10380E-02  6118   0.665E-02    0.497E-01
WARNING in EDDRMM: call to ZHEGV failed, returncode =   6  3     21
RMM:  23    -0.634616308584E+03    0.20877E-04   -0.13310E-02  6072   0.640E-02    0.288E-01
RMM:  24    -0.634617140116E+03   -0.83153E-03   -0.12294E-02  5928   0.592E-02    0.124E-01
RMM:  25    -0.634619463076E+03   -0.23230E-02   -0.12491E-02  5684   0.561E-02    0.422E-01
RMM:  26    -0.634618903220E+03    0.55986E-03   -0.25331E-03  5354   0.499E-02    0.636E-02
RMM:  27    -0.634619951859E+03   -0.10486E-02   -0.94705E-03  5299   0.443E-02    0.404E-02
 num prob  num prob RMM:  28    -0.634620980488E+03   -0.10286E-02   -0.99103E-03  4836   0.394E-02    0.370E-02
WARNING in EDDRMM: call to ZHEGV failed, returncode =   6  3     12
RMM:  29    -0.634622087140E+03   -0.11067E-02   -0.10635E-02  5066   0.376E-02    0.340E-02
WARNING in EDDRMM: call to ZHEGV failed, returncode =   6  3     36
RMM:  30    -0.634623226561E+03   -0.11394E-02   -0.11298E-02  4721   0.364E-02    0.173E-02
RMM:  31    -0.634624416686E+03   -0.11901E-02   -0.11779E-02  4599   0.357E-02    0.291E-02
RMM:  32    -0.634625749124E+03   -0.13324E-02   -0.11497E-02  6220   0.449E-02    0.106E-01
RMM:  33    -0.634627038092E+03   -0.12890E-02   -0.13087E-02  4182   0.364E-02    0.546E-02
RMM:  34    -0.634628347831E+03   -0.13097E-02   -0.12813E-02  4673   0.351E-02    0.357E-02
WARNING in EDDRMM: call to ZHEGV failed, returncode =   8  4     13
RMM:  35    -0.634629707179E+03   -0.13593E-02   -0.13439E-02  4291   0.338E-02    0.247E-02
RMM:  36    -0.634631093462E+03   -0.13863E-02   -0.13731E-02  4501   0.338E-02    0.157E-02
 num prob WARNING in EDDRMM: call to ZHEGV failed, returncode =   6  3     12
RMM:  37    -0.634632501548E+03   -0.14081E-02   -0.14021E-02  3247   0.324E-02    0.156E-02
RMM:  38    -0.634633959807E+03   -0.14583E-02   -0.14481E-02  2996   0.319E-02    0.146E-02
RMM:  39    -0.634635435377E+03   -0.14756E-02   -0.14788E-02  3619   0.323E-02    0.149E-02
WARNING in EDDRMM: call to ZHEGV failed, returncode =   6  3     16
RMM:  40    -0.634636941922E+03   -0.15065E-02   -0.15087E-02  3897   0.324E-02    0.157E-02
RMM:  41    -0.634638489774E+03   -0.15479E-02   -0.15343E-02  2593   0.309E-02    0.223E-02
RMM:  42    -0.634640041060E+03   -0.15513E-02   -0.15591E-02  3334   0.317E-02    0.232E-02
RMM:  43    -0.634641620651E+03   -0.15796E-02   -0.15844E-02  3517   0.317E-02    0.244E-02
RMM:  44    -0.634643219477E+03   -0.15988E-02   -0.15960E-02  2520   0.308E-02    0.277E-02
RMM:  45    -0.634644841614E+03   -0.16221E-02   -0.16123E-02  2428   0.303E-02    0.328E-02
RMM:  46    -0.634646453123E+03   -0.16115E-02   -0.16242E-02  3468   0.316E-02    0.339E-02
RMM:  47    -0.634648085309E+03   -0.16322E-02   -0.16274E-02  2435   0.304E-02    0.383E-02
WARNING in EDDRMM: call to ZHEGV failed, returncode =   6  3     12
RMM:  48    -0.634649726276E+03   -0.16410E-02   -0.16293E-02  2396   0.299E-02    0.435E-02
RMM:  49    -0.634651362166E+03   -0.16359E-02   -0.16315E-02  2381   0.298E-02    0.479E-02
RMM:  50    -0.634652999137E+03   -0.16370E-02   -0.16251E-02  1917   0.295E-02    0.531E-02
RMM:  51    -0.634654629659E+03   -0.16305E-02   -0.16197E-02  1671   0.294E-02    0.583E-02
RMM:  52    -0.634656246235E+03   -0.16166E-02   -0.16049E-02  1827   0.294E-02    0.635E-02
RMM:  53    -0.634657847552E+03   -0.16013E-02   -0.15919E-02  1578   0.294E-02    0.685E-02
RMM:  54    -0.634659422459E+03   -0.15749E-02   -0.15687E-02  1404   0.293E-02    0.731E-02
RMM:  55    -0.634660972410E+03   -0.15500E-02   -0.15478E-02  1501   0.294E-02    0.775E-02
RMM:  56    -0.634662493959E+03   -0.15215E-02   -0.15192E-02  1705   0.294E-02    0.818E-02
RMM:  57    -0.634663986667E+03   -0.14927E-02   -0.14926E-02  1459   0.294E-02    0.859E-02
RMM:  58    -0.634665449460E+03   -0.14628E-02   -0.14608E-02  1432   0.294E-02    0.900E-02
RMM:  59    -0.634666883130E+03   -0.14337E-02   -0.14316E-02  1339   0.294E-02    0.942E-02
RMM:  60    -0.634668276784E+03   -0.13937E-02   -0.13967E-02  1357   0.295E-02    0.979E-02
RMM:  61    -0.634669642709E+03   -0.13659E-02   -0.13668E-02  1308   0.295E-02    0.102E-01
RMM:  62    -0.634670959609E+03   -0.13169E-02   -0.13324E-02  1569   0.296E-02    0.105E-01
RMM:  63    -0.634672251276E+03   -0.12917E-02   -0.13061E-02  1566   0.296E-02    0.108E-01
RMM:  64    -0.634673520199E+03   -0.12689E-02   -0.12802E-02  1145   0.296E-02    0.111E-01
RMM:  65    -0.634674767575E+03   -0.12474E-02   -0.12642E-02  1329   0.297E-02    0.114E-01
RMM:  66    -0.634675999214E+03   -0.12316E-02   -0.12475E-02  1223   0.298E-02    0.116E-01
RMM:  67    -0.634677204269E+03   -0.12051E-02   -0.12396E-02  2156   0.301E-02    0.118E-01
RMM:  68    -0.634678407052E+03   -0.12028E-02   -0.12315E-02  1856   0.301E-02    0.120E-01
RMM:  69    -0.634679618821E+03   -0.12118E-02   -0.12318E-02  1482   0.300E-02    0.123E-01
RMM:  70    -0.634680826329E+03   -0.12075E-02   -0.12329E-02  1762   0.302E-02    0.125E-01
RMM:  71    -0.634682050045E+03   -0.12237E-02   -0.12421E-02  1064   0.301E-02    0.127E-01
RMM:  72    -0.634683276455E+03   -0.12264E-02   -0.12515E-02  1481   0.303E-02    0.129E-01
RMM:  73    -0.634684523741E+03   -0.12473E-02   -0.12678E-02  1140   0.303E-02    0.131E-01
RMM:  74    -0.634685788476E+03   -0.12647E-02   -0.12845E-02  1074   0.304E-02    0.133E-01
RMM:  75    -0.634687075827E+03   -0.12874E-02   -0.13080E-02  1212   0.305E-02    0.134E-01
RMM:  76    -0.634688389026E+03   -0.13132E-02   -0.13320E-02  1096   0.305E-02    0.136E-01
RMM:  77    -0.634689708874E+03   -0.13198E-02   -0.13624E-02  2215   0.310E-02    0.137E-01
RMM:  78    -0.634691079801E+03   -0.13709E-02   -0.13930E-02  1786   0.309E-02    0.138E-01
RMM:  79    -0.634692492713E+03   -0.14129E-02   -0.14291E-02  1311   0.308E-02    0.140E-01
RMM:  80    -0.634693943824E+03   -0.14511E-02   -0.14648E-02  1013   0.309E-02    0.141E-01
RMM:  81    -0.634695436706E+03   -0.14929E-02   -0.15058E-02  1006   0.310E-02    0.143E-01
RMM:  82    -0.634696986822E+03   -0.15501E-02   -0.15471E-02  1288   0.311E-02    0.145E-01
RMM:  83    -0.634698565573E+03   -0.15788E-02   -0.15937E-02   960   0.311E-02    0.146E-01
RMM:  84    -0.634700184348E+03   -0.16188E-02   -0.16402E-02  1661   0.313E-02    0.147E-01
RMM:  85    -0.634701867559E+03   -0.16832E-02   -0.16905E-02  1340   0.313E-02    0.148E-01
RMM:  86    -0.634703608004E+03   -0.17404E-02   -0.17410E-02   921   0.313E-02    0.149E-01
RMM:  87    -0.634705334811E+03   -0.17268E-02   -0.17959E-02  2666   0.326E-02    0.148E-01
RMM:  88    -0.634707130463E+03   -0.17957E-02   -0.18501E-02  2837   0.329E-02    0.147E-01
RMM:  89    -0.634709008969E+03   -0.18785E-02   -0.19057E-02  2316   0.324E-02    0.147E-01
RMM:  90    -0.634710969581E+03   -0.19606E-02   -0.19598E-02  2201   0.320E-02    0.148E-01
RMM:  91    -0.634712958280E+03   -0.19887E-02   -0.20178E-02  2455   0.325E-02    0.148E-01
RMM:  92    -0.634714758937E+03   -0.18007E-02   -0.21015E-02  5137   0.398E-02    0.137E-01
RMM:  93    -0.634716831791E+03   -0.20729E-02   -0.21329E-02  3849   0.343E-02    0.135E-01
RMM:  94    -0.634719006088E+03   -0.21743E-02   -0.21718E-02  2320   0.325E-02    0.136E-01
RMM:  95    -0.634721202857E+03   -0.21968E-02   -0.21736E-02  2281   0.319E-02    0.137E-01
RMM:  96    -0.634723335360E+03   -0.21325E-02   -0.21084E-02  2266   0.316E-02    0.138E-01
RMM:  97    -0.634725196054E+03   -0.18607E-02   -0.19965E-02  4752   0.373E-02    0.133E-01
RMM:  98    -0.634727608201E+03   -0.24121E-02   -0.23641E-02  2347   0.329E-02    0.135E-01
RMM:  99    -0.634729953824E+03   -0.23456E-02   -0.23080E-02  2195   0.323E-02    0.136E-01
RMM: 100    -0.634732323898E+03   -0.23701E-02   -0.23437E-02  2274   0.324E-02    0.137E-01
RMM: 101    -0.634734735243E+03   -0.24113E-02   -0.23760E-02  2225   0.323E-02    0.139E-01
RMM: 102    -0.634737080511E+03   -0.23453E-02   -0.24188E-02  4636   0.370E-02    0.136E-01
RMM: 103    -0.634739506923E+03   -0.24264E-02   -0.23940E-02  2399   0.332E-02    0.137E-01
RMM: 104    -0.634741947907E+03   -0.24410E-02   -0.24057E-02  2284   0.329E-02    0.139E-01
RMM: 105    -0.634744395336E+03   -0.24474E-02   -0.24037E-02  2262   0.326E-02    0.140E-01
RMM: 106    -0.634746839686E+03   -0.24443E-02   -0.23952E-02  1708   0.323E-02    0.142E-01
RMM: 107    -0.634749215870E+03   -0.23762E-02   -0.23863E-02  3756   0.350E-02    0.142E-01
RMM: 108    -0.634751623384E+03   -0.24075E-02   -0.23647E-02  2300   0.331E-02    0.144E-01
RMM: 109    -0.634753999830E+03   -0.23764E-02   -0.23381E-02  2309   0.331E-02    0.146E-01
RMM: 110    -0.634756347557E+03   -0.23477E-02   -0.23119E-02  2276   0.329E-02    0.148E-01
RMM: 111    -0.634758659147E+03   -0.23116E-02   -0.22738E-02  2220   0.326E-02    0.150E-01
RMM: 112    -0.634760904312E+03   -0.22452E-02   -0.22814E-02  4872   0.388E-02    0.149E-01
RMM: 113    -0.634763184863E+03   -0.22806E-02   -0.22349E-02  2416   0.333E-02    0.152E-01
RMM: 114    -0.634765415950E+03   -0.22311E-02   -0.21818E-02  2313   0.329E-02    0.155E-01
RMM: 115    -0.634767544939E+03   -0.21290E-02   -0.20718E-02  2497   0.333E-02    0.158E-01
RMM: 116    -0.634769569765E+03   -0.20248E-02   -0.19953E-02  2235   0.325E-02    0.160E-01
RMM: 117    -0.634771600317E+03   -0.20306E-02   -0.20341E-02  4333   0.357E-02    0.161E-01
RMM: 118    -0.634773724320E+03   -0.21240E-02   -0.21186E-02  2376   0.329E-02    0.162E-01
RMM: 119    -0.634775730151E+03   -0.20058E-02   -0.19843E-02  2268   0.328E-02    0.164E-01
RMM: 120    -0.634777704494E+03   -0.19743E-02   -0.19504E-02  2186   0.326E-02    0.166E-01
RMM: 121    -0.634779692725E+03   -0.19882E-02   -0.19682E-02  1909   0.325E-02    0.168E-01
RMM: 122    -0.634781585971E+03   -0.18932E-02   -0.20123E-02  5236   0.408E-02    0.164E-01
RMM: 123    -0.634783530819E+03   -0.19448E-02   -0.20010E-02  4262   0.360E-02    0.161E-01
RMM: 124    -0.634785440786E+03   -0.19100E-02   -0.20040E-02  4798   0.382E-02    0.157E-01
RMM: 125    -0.634787367768E+03   -0.19270E-02   -0.20042E-02  4864   0.385E-02    0.154E-01
RMM: 126    -0.634789354081E+03   -0.19863E-02   -0.19977E-02  3093   0.350E-02    0.154E-01
RMM: 127    -0.634791303761E+03   -0.19497E-02   -0.20204E-02  4978   0.396E-02    0.151E-01
RMM: 128    -0.634793362582E+03   -0.20588E-02   -0.20168E-02  2670   0.348E-02    0.154E-01
RMM: 129    -0.634795419975E+03   -0.20574E-02   -0.20345E-02  2315   0.334E-02    0.155E-01
RMM: 130    -0.634797504477E+03   -0.20845E-02   -0.20555E-02  2333   0.334E-02    0.157E-01
RMM: 131    -0.634799611694E+03   -0.21072E-02   -0.20768E-02  2365   0.336E-02    0.159E-01
RMM: 132    -0.634801713163E+03   -0.21015E-02   -0.21311E-02  5378   0.424E-02    0.156E-01
RMM: 133    -0.634803902563E+03   -0.21894E-02   -0.21242E-02  3167   0.357E-02    0.159E-01
RMM: 134    -0.634806101043E+03   -0.21985E-02   -0.21432E-02  3411   0.358E-02    0.162E-01
RMM: 135    -0.634808304053E+03   -0.22030E-02   -0.21709E-02  2303   0.341E-02    0.163E-01
RMM: 136    -0.634810537580E+03   -0.22335E-02   -0.21996E-02  2289   0.338E-02    0.164E-01
RMM: 137    -0.634812756956E+03   -0.22194E-02   -0.22354E-02  4545   0.385E-02    0.163E-01
RMM: 138    -0.634815062409E+03   -0.23055E-02   -0.22539E-02  2380   0.345E-02    0.165E-01
RMM: 139    -0.634817380046E+03   -0.23176E-02   -0.22838E-02  2324   0.345E-02    0.167E-01
RMM: 140    -0.634819734060E+03   -0.23540E-02   -0.23194E-02  2352   0.347E-02    0.168E-01
RMM: 141    -0.634822130470E+03   -0.23964E-02   -0.23584E-02  2913   0.354E-02    0.169E-01
RMM: 142    -0.634824576432E+03   -0.24460E-02   -0.24159E-02  4797   0.399E-02    0.169E-01
RMM: 143    -0.634827031357E+03   -0.24549E-02   -0.24388E-02  3009   0.359E-02    0.169E-01
RMM: 144    -0.634829532474E+03   -0.25011E-02   -0.24740E-02  2679   0.356E-02    0.170E-01
RMM: 145    -0.634832065942E+03   -0.25335E-02   -0.25109E-02  2641   0.355E-02    0.171E-01
RMM: 146    -0.634834652379E+03   -0.25864E-02   -0.25494E-02  2244   0.349E-02    0.172E-01
RMM: 147    -0.634836629901E+03   -0.19775E-02   -0.26631E-02  6253   0.570E-02    0.161E-01
RMM: 148    -0.634839375824E+03   -0.27459E-02   -0.26334E-02  4703   0.408E-02    0.162E-01
RMM: 149    -0.634842230735E+03   -0.28549E-02   -0.26769E-02  5611   0.453E-02    0.157E-01
RMM: 150    -0.634845164913E+03   -0.29342E-02   -0.26853E-02  4816   0.416E-02
 -----------------------------------------------------------------------------
|                                                                             |
|           W    W    AA    RRRRR   N    N  II  N    N   GGGG   !!!           |
|           W    W   A  A   R    R  NN   N  II  NN   N  G    G  !!!           |
|           W    W  A    A  R    R  N N  N  II  N N  N  G       !!!           |
|           W WW W  AAAAAA  RRRRR   N  N N  II  N  N N  G  GGG   !            |
|           WW  WW  A    A  R   R   N   NN  II  N   NN  G    G                |
|           W    W  A    A  R    R  N    N  II  N    N   GGGG   !!!           |
|                                                                             |
|     The electronic self-consistency was not achieved in the given           |
|     number of steps (NELM). The forces and other quantities evaluated       |
|     might not be reliable so examine the results carefully. If you find     |
|     spurious results, we suggest increasing NELM, if you were close to      |
|     convergence or switching to a different ALGO or adjusting the           |
|     density mixing parameters otherwise.                                    |
|                                                                             |
 -----------------------------------------------------------------------------

   2 F= -.63484516E+03 E0= -.63477748E+03  d E =-.839791E+01
 trial-energy change:   -8.397911  1 .order -157.725902 -325.681595   10.229790
 step:   0.9695(harm=  0.9695)  dis= 1.92779  next Energy=  -784.328925 (dE=-0.158E+03)
 bond charge predicted
       N       E                     dE             d eps       ncg     rms          rms(c)
DAV:   1    -0.635377942919E+03   -0.53571E+00   -0.75856E+01  3808   0.904E+00    0.137E+00
RMM:   2    -0.635688406814E+03   -0.31046E+00   -0.31211E+00  3645   0.167E+00    0.176E+00
RMM:   3    -0.635681609227E+03    0.67976E-02   -0.31156E-01  4778   0.549E-01    0.145E+00
RMM:   4    -0.635683374743E+03   -0.17655E-02   -0.69139E-02  5161   0.230E-01    0.106E+00
RMM:   5    -0.635679708397E+03    0.36663E-02   -0.11513E-02  5378   0.996E-02    0.775E-01
RMM:   6    -0.635676651071E+03    0.30573E-02   -0.52068E-03  4905   0.669E-02    0.432E-01
RMM:   7    -0.635676325393E+03    0.32568E-03   -0.84457E-03  4706   0.834E-02    0.429E-01
RMM:   8    -0.635675367131E+03    0.95826E-03   -0.15201E-03  5382   0.418E-02    0.991E-02
RMM:   9    -0.635675435390E+03   -0.68260E-04   -0.72826E-04  5541   0.222E-02    0.744E-02
RMM:  10    -0.635675514802E+03   -0.79412E-04   -0.44433E-04  5507   0.160E-02    0.772E-02
RMM:  11    -0.635675578137E+03   -0.63334E-04   -0.38830E-04  5429   0.142E-02    0.282E-02
 num prob RMM:  12    -0.635675646107E+03   -0.67970E-04   -0.29748E-04  4811   0.885E-03    0.459E-02
RMM:  13    -0.635675710488E+03   -0.64381E-04   -0.25250E-04  5076   0.934E-03    0.149E-02
RMM:  14    -0.635675764632E+03   -0.54144E-04   -0.22184E-04  3523   0.568E-03    0.116E-02
 num prob RMM:  15    -0.635675798397E+03   -0.33765E-04   -0.20811E-04  3000   0.432E-03    0.999E-03
RMM:  16    -0.635675855280E+03   -0.56882E-04   -0.18755E-04  3403   0.481E-03    0.514E-03
 num prob  num prob  num prob  num prob  num prob  num prob  num prob  num prob  num prob RMM:  17    -0.635675882719E+03   -0.27439E-04   -0.19652E-04  2563   0.332E-03    0.723E-03
RMM:  18    -0.635675909076E+03   -0.26357E-04   -0.18867E-04  2497   0.286E-03    0.631E-03
 num prob RMM:  19    -0.635675940293E+03   -0.31217E-04   -0.18501E-04  2690   0.314E-03    0.261E-03
 num prob RMM:  20    -0.635675961829E+03   -0.21535E-04   -0.18429E-04  2224   0.238E-03    0.163E-03
 num prob RMM:  21    -0.635675982035E+03   -0.20206E-04   -0.17506E-04  2126   0.209E-03    0.228E-03
RMM:  22    -0.635676004450E+03   -0.22415E-04   -0.17545E-04  2348   0.225E-03    0.110E-03
 num prob RMM:  23    -0.635676022664E+03   -0.18214E-04   -0.17075E-04  1750   0.179E-03    0.203E-03
RMM:  24    -0.635676040816E+03   -0.18152E-04   -0.17211E-04  1565   0.165E-03    0.302E-03
 num prob RMM:  25    -0.635676058853E+03   -0.18037E-04   -0.16884E-04  2115   0.172E-03    0.325E-03
RMM:  26    -0.635676076429E+03   -0.17576E-04   -0.16820E-04  1236   0.151E-03    0.261E-03
RMM:  27    -0.635676093851E+03   -0.17421E-04   -0.16866E-04  1310   0.150E-03    0.257E-03
RMM:  28    -0.635676111084E+03   -0.17233E-04   -0.16717E-04  1980   0.158E-03    0.185E-03
RMM:  29    -0.635676128191E+03   -0.17107E-04   -0.16604E-04  1064   0.139E-03    0.198E-03
RMM:  30    -0.635676146077E+03   -0.17886E-04   -0.17426E-04   973   0.136E-03    0.247E-03
RMM:  31    -0.635676164472E+03   -0.18394E-04   -0.17851E-04   838   0.133E-03    0.379E-03
RMM:  32    -0.635676182687E+03   -0.18215E-04   -0.17724E-04  1153   0.139E-03    0.379E-03
RMM:  33    -0.635676201217E+03   -0.18530E-04   -0.18071E-04  1730   0.145E-03    0.366E-03
RMM:  34    -0.635676219844E+03   -0.18627E-04   -0.18117E-04   879   0.132E-03    0.414E-03
RMM:  35    -0.635676238848E+03   -0.19005E-04   -0.18509E-04   835   0.130E-03    0.487E-03
RMM:  36    -0.635676258098E+03   -0.19249E-04   -0.18722E-04   853   0.131E-03    0.573E-03
RMM:  37    -0.635676277637E+03   -0.19540E-04   -0.19020E-04   859   0.131E-03    0.668E-03
RMM:  38    -0.635676297366E+03   -0.19728E-04   -0.19227E-04   908   0.132E-03    0.742E-03
RMM:  39    -0.635676317322E+03   -0.19956E-04   -0.19457E-04   851   0.131E-03    0.827E-03
RMM:  40    -0.635676337634E+03   -0.20312E-04   -0.19812E-04   869   0.131E-03    0.908E-03
RMM:  41    -0.635676358387E+03   -0.20753E-04   -0.20236E-04   839   0.131E-03    0.100E-02
RMM:  42    -0.635676379646E+03   -0.21259E-04   -0.20695E-04   843   0.131E-03    0.110E-02
RMM:  43    -0.635676401406E+03   -0.21760E-04   -0.21225E-04   840   0.130E-03    0.120E-02
RMM:  44    -0.635676423740E+03   -0.22333E-04   -0.21767E-04   830   0.130E-03    0.130E-02
RMM:  45    -0.635676446672E+03   -0.22932E-04   -0.22357E-04   832   0.130E-03    0.141E-02
RMM:  46    -0.635676470271E+03   -0.23599E-04   -0.22996E-04   859   0.130E-03    0.151E-02
RMM:  47    -0.635676494493E+03   -0.24222E-04   -0.23653E-04   813   0.129E-03    0.161E-02
RMM:  48    -0.635676519509E+03   -0.25016E-04   -0.24373E-04   817   0.130E-03    0.172E-02
RMM:  49    -0.635676545281E+03   -0.25772E-04   -0.25131E-04   826   0.131E-03    0.184E-02
RMM:  50    -0.635676571864E+03   -0.26583E-04   -0.25926E-04   819   0.131E-03    0.194E-02
RMM:  51    -0.635676599319E+03   -0.27456E-04   -0.26778E-04   805   0.131E-03    0.206E-02
RMM:  52    -0.635676627721E+03   -0.28401E-04   -0.27676E-04   821   0.132E-03    0.217E-02
RMM:  53    -0.635676657057E+03   -0.29337E-04   -0.28626E-04   797   0.133E-03    0.229E-02
RMM:  54    -0.635676687390E+03   -0.30333E-04   -0.29619E-04   810   0.134E-03    0.240E-02
RMM:  55    -0.635676718820E+03   -0.31431E-04   -0.30686E-04   857   0.135E-03    0.253E-02
RMM:  56    -0.635676751356E+03   -0.32535E-04   -0.31776E-04   820   0.135E-03    0.264E-02
RMM:  57    -0.635676785027E+03   -0.33672E-04   -0.32961E-04   832   0.135E-03    0.275E-02
RMM:  58    -0.635676820012E+03   -0.34984E-04   -0.34166E-04   820   0.136E-03    0.287E-02
RMM:  59    -0.635676856376E+03   -0.36364E-04   -0.35489E-04   832   0.137E-03    0.300E-02
RMM:  60    -0.635676894094E+03   -0.37718E-04   -0.36822E-04   811   0.138E-03    0.312E-02
RMM:  61    -0.635676933287E+03   -0.39192E-04   -0.38284E-04   817   0.139E-03    0.326E-02
RMM:  62    -0.635676973972E+03   -0.40685E-04   -0.39748E-04   854   0.140E-03    0.338E-02
RMM:  63    -0.635677016287E+03   -0.42315E-04   -0.41359E-04   827   0.141E-03    0.352E-02
RMM:  64    -0.635677060242E+03   -0.43955E-04   -0.42952E-04   812   0.142E-03    0.365E-02
RMM:  65    -0.635677105938E+03   -0.45697E-04   -0.44678E-04   846   0.144E-03    0.379E-02
RMM:  66    -0.635677153659E+03   -0.47720E-04   -0.46653E-04   851   0.145E-03    0.393E-02
RMM:  67    -0.635677203326E+03   -0.49667E-04   -0.48541E-04   834   0.146E-03    0.407E-02
RMM:  68    -0.635677255046E+03   -0.51720E-04   -0.50585E-04   826   0.147E-03    0.422E-02
RMM:  69    -0.635677308964E+03   -0.53919E-04   -0.52738E-04   841   0.149E-03    0.437E-02
RMM:  70    -0.635677365167E+03   -0.56202E-04   -0.54960E-04   842   0.151E-03    0.451E-02
RMM:  71    -0.635677423815E+03   -0.58648E-04   -0.57383E-04   865   0.152E-03    0.467E-02
RMM:  72    -0.635677487233E+03   -0.63418E-04   -0.59997E-04  1149   0.164E-03    0.499E-02
RMM:  73    -0.635677551774E+03   -0.64541E-04   -0.62671E-04   900   0.157E-03    0.520E-02
RMM:  74    -0.635677618232E+03   -0.66459E-04   -0.65384E-04   795   0.155E-03    0.534E-02
RMM:  75    -0.635677687891E+03   -0.69658E-04   -0.68312E-04   805   0.157E-03    0.550E-02
RMM:  76    -0.635677760764E+03   -0.72873E-04   -0.71331E-04   874   0.160E-03    0.567E-02
RMM:  77    -0.635677838203E+03   -0.77439E-04   -0.74672E-04   917   0.166E-03    0.592E-02
RMM:  78    -0.635677918288E+03   -0.80085E-04   -0.78046E-04   986   0.167E-03    0.612E-02
RMM:  79    -0.635678001121E+03   -0.82833E-04   -0.81561E-04   770   0.163E-03    0.628E-02
RMM:  80    -0.635678087947E+03   -0.86826E-04   -0.85308E-04   877   0.168E-03    0.645E-02
RMM:  81    -0.635678178829E+03   -0.90883E-04   -0.89239E-04   834   0.169E-03    0.663E-02
RMM:  82    -0.635678268949E+03   -0.90120E-04   -0.93072E-04  1272   0.186E-03    0.655E-02
RMM:  83    -0.635678366808E+03   -0.97859E-04   -0.97410E-04  1060   0.176E-03    0.665E-02
RMM:  84    -0.635678470591E+03   -0.10378E-03   -0.10195E-03   880   0.174E-03    0.682E-02
RMM:  85    -0.635678580096E+03   -0.10950E-03   -0.10680E-03   806   0.176E-03    0.706E-02
RMM:  86    -0.635678694314E+03   -0.11422E-03   -0.11193E-03   918   0.180E-03    0.728E-02
RMM:  87    -0.635678811817E+03   -0.11750E-03   -0.11714E-03  1063   0.185E-03    0.739E-02
RMM:  88    -0.635678937206E+03   -0.12539E-03   -0.12281E-03   864   0.183E-03    0.763E-02
RMM:  89    -0.635679068707E+03   -0.13150E-03   -0.12879E-03   897   0.186E-03    0.787E-02
RMM:  90    -0.635679206445E+03   -0.13774E-03   -0.13507E-03   910   0.189E-03    0.812E-02
RMM:  91    -0.635679351077E+03   -0.14463E-03   -0.14170E-03   964   0.193E-03    0.839E-02
RMM:  92    -0.635679498249E+03   -0.14717E-03   -0.14838E-03  1267   0.204E-03    0.846E-02
RMM:  93    -0.635679656420E+03   -0.15817E-03   -0.15576E-03  1037   0.199E-03    0.869E-02
RMM:  94    -0.635679822737E+03   -0.16632E-03   -0.16350E-03   926   0.200E-03    0.896E-02
RMM:  95    -0.635679998038E+03   -0.17530E-03   -0.17170E-03   965   0.205E-03    0.926E-02
RMM:  96    -0.635680181336E+03   -0.18330E-03   -0.18034E-03  1028   0.207E-03    0.955E-02
RMM:  97    -0.635680370324E+03   -0.18899E-03   -0.18919E-03  1266   0.217E-03    0.970E-02
RMM:  98    -0.635680570896E+03   -0.20057E-03   -0.19866E-03  1161   0.216E-03    0.995E-02
RMM:  99    -0.635680781801E+03   -0.21090E-03   -0.20871E-03  1146   0.219E-03    0.102E-01
RMM: 100    -0.635681005333E+03   -0.22353E-03   -0.21927E-03   956   0.219E-03    0.106E-01
RMM: 101    -0.635681240162E+03   -0.23483E-03   -0.23080E-03  1071   0.225E-03    0.109E-01
RMM: 102    -0.635681479734E+03   -0.23957E-03   -0.24196E-03  1523   0.242E-03    0.110E-01
RMM: 103    -0.635681738844E+03   -0.25911E-03   -0.25495E-03  1171   0.232E-03    0.114E-01
RMM: 104    -0.635682012843E+03   -0.27400E-03   -0.26825E-03   989   0.234E-03    0.119E-01
RMM: 105    -0.635682299954E+03   -0.28711E-03   -0.28232E-03  1159   0.241E-03    0.123E-01
RMM: 106    -0.635682602819E+03   -0.30286E-03   -0.29703E-03  1086   0.244E-03    0.127E-01
RMM: 107    -0.635682916166E+03   -0.31335E-03   -0.31263E-03  1451   0.255E-03    0.130E-01
RMM: 108    -0.635683251939E+03   -0.33577E-03   -0.32920E-03  1088   0.250E-03    0.135E-01
RMM: 109    -0.635683606525E+03   -0.35459E-03   -0.34684E-03  1080   0.255E-03    0.141E-01
RMM: 110    -0.635683979005E+03   -0.37248E-03   -0.36553E-03  1210   0.261E-03    0.146E-01
RMM: 111    -0.635684372373E+03   -0.39337E-03   -0.38492E-03  1123   0.265E-03    0.152E-01
RMM: 112    -0.635684776398E+03   -0.40402E-03   -0.40508E-03  1536   0.281E-03    0.155E-01
RMM: 113    -0.635685210746E+03   -0.43435E-03   -0.42666E-03  1215   0.272E-03    0.161E-01
RMM: 114    -0.635685671616E+03   -0.46087E-03   -0.45013E-03  1139   0.277E-03    0.168E-01
RMM: 115    -0.635686155145E+03   -0.48353E-03   -0.47282E-03  1218   0.284E-03    0.174E-01
RMM: 116    -0.635686664342E+03   -0.50920E-03   -0.49830E-03  1227   0.290E-03    0.182E-01
RMM: 117    -0.635687188603E+03   -0.52426E-03   -0.52227E-03  1638   0.306E-03    0.187E-01
RMM: 118    -0.635687749873E+03   -0.56127E-03   -0.54930E-03  1183   0.296E-03    0.195E-01
RMM: 119    -0.635688338053E+03   -0.58818E-03   -0.57516E-03  1204   0.303E-03    0.203E-01
RMM: 120    -0.635688953439E+03   -0.61539E-03   -0.60296E-03  1297   0.311E-03    0.211E-01
RMM: 121    -0.635689596238E+03   -0.64280E-03   -0.62898E-03  1258   0.317E-03    0.220E-01
RMM: 122    -0.635690250533E+03   -0.65430E-03   -0.65600E-03  1867   0.344E-03    0.226E-01
RMM: 123    -0.635690944261E+03   -0.69373E-03   -0.68123E-03  1166   0.324E-03    0.236E-01
RMM: 124    -0.635691666369E+03   -0.72211E-03   -0.70895E-03  1403   0.336E-03    0.245E-01
RMM: 125    -0.635692413825E+03   -0.74746E-03   -0.73251E-03  1285   0.339E-03    0.255E-01
RMM: 126    -0.635693187336E+03   -0.77351E-03   -0.75983E-03  1440   0.350E-03    0.265E-01
RMM: 127    -0.635693973817E+03   -0.78648E-03   -0.78153E-03  1483   0.359E-03    0.275E-01
RMM: 128    -0.635694796768E+03   -0.82295E-03   -0.80925E-03  1413   0.359E-03    0.286E-01
RMM: 129    -0.635695643261E+03   -0.84649E-03   -0.83077E-03  1279   0.364E-03    0.297E-01
RMM: 130    -0.635696514464E+03   -0.87120E-03   -0.85750E-03  1511   0.377E-03    0.309E-01
RMM: 131    -0.635697407138E+03   -0.89267E-03   -0.87870E-03  1372   0.379E-03    0.321E-01
RMM: 132    -0.635698304771E+03   -0.89763E-03   -0.90697E-03  1834   0.407E-03    0.331E-01
RMM: 133    -0.635699246394E+03   -0.94162E-03   -0.92678E-03  1305   0.386E-03    0.343E-01
RMM: 134    -0.635700214560E+03   -0.96817E-03   -0.95467E-03  1530   0.399E-03    0.356E-01
RMM: 135    -0.635701198358E+03   -0.98380E-03   -0.97241E-03  1444   0.401E-03    0.369E-01
RMM: 136    -0.635702211800E+03   -0.10134E-02   -0.99968E-03  1565   0.412E-03    0.382E-01
RMM: 137    -0.635703207693E+03   -0.99589E-03   -0.10135E-02  1884   0.436E-03    0.393E-01
RMM: 138    -0.635704248702E+03   -0.10410E-02   -0.10394E-02  1386   0.417E-03    0.406E-01
RMM: 139    -0.635705305005E+03   -0.10563E-02   -0.10522E-02  1587   0.427E-03    0.419E-01
RMM: 140    -0.635706390647E+03   -0.10856E-02   -0.10767E-02  1561   0.430E-03    0.433E-01
RMM: 141    -0.635707492050E+03   -0.11014E-02   -0.10878E-02  1558   0.438E-03    0.448E-01
RMM: 142    -0.635708585974E+03   -0.10939E-02   -0.11087E-02  1706   0.451E-03    0.461E-01
RMM: 143    -0.635709702567E+03   -0.11166E-02   -0.11163E-02  1521   0.445E-03    0.474E-01
RMM: 144    -0.635710840311E+03   -0.11377E-02   -0.11364E-02  1568   0.451E-03    0.489E-01
RMM: 145    -0.635711996511E+03   -0.11562E-02   -0.11421E-02  1542   0.458E-03    0.504E-01
RMM: 146    -0.635713152675E+03   -0.11562E-02   -0.11594E-02  1631   0.468E-03    0.518E-01
RMM: 147    -0.635714277154E+03   -0.11245E-02   -0.11579E-02  1799   0.482E-03    0.530E-01
RMM: 148    -0.635715450498E+03   -0.11733E-02   -0.11741E-02  1456   0.467E-03    0.545E-01
RMM: 149    -0.635716619738E+03   -0.11692E-02   -0.11713E-02  1645   0.481E-03    0.560E-01
RMM: 150    -0.635717799760E+03   -0.11800E-02   -0.11836E-02  1630   0.484E-03
 -----------------------------------------------------------------------------
|                                                                             |
|           W    W    AA    RRRRR   N    N  II  N    N   GGGG   !!!           |
|           W    W   A  A   R    R  NN   N  II  NN   N  G    G  !!!           |
|           W    W  A    A  R    R  N N  N  II  N N  N  G       !!!           |
|           W WW W  AAAAAA  RRRRR   N  N N  II  N  N N  G  GGG   !            |
|           WW  WW  A    A  R   R   N   NN  II  N   NN  G    G                |
|           W    W  A    A  R    R  N    N  II  N    N   GGGG   !!!           |
|                                                                             |
|     The electronic self-consistency was not achieved in the given           |
|     number of steps (NELM). The forces and other quantities evaluated       |
|     might not be reliable so examine the results carefully. If you find     |
|     spurious results, we suggest increasing NELM, if you were close to      |
|     convergence or switching to a different ALGO or adjusting the           |
|     density mixing parameters otherwise.                                    |
|                                                                             |
 -----------------------------------------------------------------------------

   3 F= -.63571780E+03 E0= -.63565316E+03  d E =-.927055E+01
 curvature:  -0.48 expect dE=-0.905E+01 dE for cont linesearch -0.176E+00
 ZBRENT: interpolating
 opt :   0.9382  next Energy=  -635.887874 (dE=-0.944E+01)
 bond charge predicted
       N       E                     dE             d eps       ncg     rms          rms(c)
DAV:   1    -0.635877389084E+03   -0.16077E+00   -0.77304E+01  3616   0.933E+00    0.148E+00
RMM:   2    -0.636184361739E+03   -0.30697E+00   -0.27639E+00  3634   0.170E+00    0.222E+00
RMM:   3    -0.636141823400E+03    0.42538E-01   -0.35149E-01  4806   0.532E-01    0.442E-01
RMM:   4    -0.636147767890E+03   -0.59445E-02   -0.57432E-02  5474   0.184E-01    0.700E-01
RMM:   5    -0.636147011365E+03    0.75652E-03   -0.17607E-02  5304   0.100E-01    0.548E-01
RMM:   6    -0.636145643113E+03    0.13683E-02   -0.52174E-03  5171   0.613E-02    0.227E-01
RMM:   7    -0.636145405428E+03    0.23769E-03   -0.19232E-03  5215   0.411E-02    0.987E-02
RMM:   8    -0.636145415493E+03   -0.10065E-04   -0.75790E-04  5586   0.236E-02    0.338E-02
RMM:   9    -0.636145575975E+03   -0.16048E-03   -0.40917E-04  5614   0.187E-02    0.936E-02
WARNING in EDDRMM: call to ZHEGV failed, returncode =   6  3     59
RMM:  10    -0.636145587795E+03   -0.11820E-04   -0.22750E-04  5381   0.142E-02    0.283E-02
RMM:  11    -0.636145700562E+03   -0.11277E-03   -0.17438E-04  5013   0.121E-02    0.775E-02
RMM:  12    -0.636145725752E+03   -0.25190E-04   -0.79845E-05  4613   0.902E-03    0.254E-02
 num prob  num prob WARNING in EDDRMM: call to ZHEGV failed, returncode =   6  3     89
WARNING in EDDRMM: call to ZHEGV failed, returncode =   6  3     98
RMM:  13    -0.636145750184E+03   -0.24432E-04   -0.44370E-05  3804   0.622E-03    0.497E-03
RMM:  14    -0.636145779650E+03   -0.29465E-04   -0.24775E-05  3355   0.463E-03    0.461E-03
 num prob  num prob  num prob  num prob  num prob RMM:  15    -0.636145802776E+03   -0.23127E-04   -0.16307E-05  3020   0.380E-03    0.218E-03
 num prob  num prob  num prob  num prob RMM:  16    -0.636145812764E+03   -0.99880E-05   -0.10025E-05  2542   0.300E-03    0.273E-03
 num prob  num prob  num prob  num prob  num prob RMM:  17    -0.636145821113E+03   -0.83482E-05   -0.69093E-06  2361   0.250E-03    0.155E-03
 num prob  num prob RMM:  18    -0.636145824796E+03   -0.36838E-05   -0.47557E-06  2158   0.209E-03    0.560E-04
 num prob  num prob  num prob  num prob RMM:  19    -0.636145826515E+03   -0.17184E-05   -0.33958E-06  2004   0.177E-03    0.796E-04
 num prob  num prob  num prob RMM:  20    -0.636145827668E+03   -0.11529E-05   -0.25573E-06  1858   0.155E-03    0.465E-04
 num prob  num prob  num prob  num prob RMM:  21    -0.636145828342E+03   -0.67381E-06   -0.20491E-06  1691   0.136E-03
   4 F= -.63614583E+03 E0= -.63608217E+03  d E =-.969857E+01
 curvature:  -0.47 expect dE=-0.780E+01 dE for cont linesearch -0.184E+00
 ZBRENT: bisectioning
 opt :   0.4691  next Energy=  -642.952155 (dE=-0.165E+02)
 bond charge predicted
       N       E                     dE             d eps       ncg     rms          rms(c)
DAV:   1    -0.601293557796E+03    0.34852E+02   -0.55776E+03  3964   0.672E+01    0.171E+01
RMM:   2    -0.627959868408E+03   -0.26666E+02   -0.33525E+02  4059   0.220E+01    0.959E+00
RMM:   3    -0.637316082681E+03   -0.93562E+01   -0.96703E+01  3991   0.843E+00    0.144E+01
RMM:   4    -0.636240456796E+03    0.10756E+01   -0.16175E+01  4979   0.331E+00    0.123E+01
RMM:   5    -0.633628401732E+03    0.26121E+01   -0.55868E+00  5397   0.259E+00    0.703E+00
RMM:   6    -0.632547694708E+03    0.10807E+01   -0.26003E+00  5736   0.169E+00    0.335E+00
RMM:   7    -0.632419262978E+03    0.12843E+00   -0.61272E-01  6001   0.806E-01    0.255E+00
RMM:   8    -0.632375922597E+03    0.43340E-01   -0.26684E-01  5938   0.746E-01    0.283E+00
WARNING in EDDRMM: call to ZHEGV failed, returncode =   8  4     82
WARNING in EDDRMM: call to ZHEGV failed, returncode =   6  3    113
RMM:   9    -0.632278317658E+03    0.97605E-01   -0.50905E-01  5971   0.678E-01    0.108E+00
RMM:  10    -0.632277263466E+03    0.10542E-02    0.29662E-02  6124   0.486E-01    0.114E+00
RMM:  11    -0.632274819703E+03    0.24438E-02    0.52749E-03  6274   0.400E-01    0.112E+00
RMM:  12    -0.632265382719E+03    0.94370E-02    0.52999E-02  6299   0.354E-01    0.956E-01
RMM:  13    -0.632283815106E+03   -0.18432E-01   -0.16122E-01  6050   0.390E-01    0.124E+00
RMM:  14    -0.632248640970E+03    0.35174E-01    0.22691E-01  6096   0.323E-01    0.393E-01
RMM:  15    -0.632259254401E+03   -0.10613E-01   -0.94356E-02  6171   0.298E-01    0.377E-01
RMM:  16    -0.632246890708E+03    0.12364E-01    0.12605E-01  6170   0.274E-01    0.261E-01
RMM:  17    -0.632253096580E+03   -0.62059E-02   -0.56411E-02  6203   0.266E-01    0.262E-01
RMM:  18    -0.632250698442E+03    0.23981E-02    0.54149E-02  6199   0.260E-01    0.481E-01
WARNING in EDDRMM: call to ZHEGV failed, returncode =   6  3     89
RMM:  19    -0.632254027113E+03   -0.33287E-02   -0.24898E-02  6167   0.252E-01    0.518E-01
RMM:  20    -0.632246119948E+03    0.79072E-02    0.54707E-02  6183   0.239E-01    0.373E-01
RMM:  21    -0.632247757540E+03   -0.16376E-02   -0.24594E-02  6185   0.230E-01    0.302E-01
RMM:  22    -0.632243748770E+03    0.40088E-02    0.32824E-02  6188   0.223E-01    0.247E-01
RMM:  23    -0.632245031531E+03   -0.12828E-02   -0.17122E-02  6147   0.220E-01    0.213E-01
WARNING in EDDRMM: call to ZHEGV failed, returncode =   8  4     80
RMM:  24    -0.632242470767E+03    0.25608E-02    0.20278E-02  6138   0.216E-01    0.177E-01
WARNING in EDDRMM: call to ZHEGV failed, returncode =   8  4     23
RMM:  25    -0.632243395755E+03   -0.92499E-03   -0.15271E-02  6122   0.214E-01    0.945E-02
RMM:  26    -0.632241620876E+03    0.17749E-02    0.14289E-02  6119   0.211E-01    0.413E-02
RMM:  27    -0.632242447809E+03   -0.82693E-03   -0.10273E-02  6033   0.211E-01    0.341E-02
RMM:  28    -0.632241028904E+03    0.14189E-02    0.12384E-02  6016   0.208E-01    0.427E-02
RMM:  29    -0.632241177298E+03   -0.14839E-03   -0.41528E-03  5965   0.207E-01    0.258E-02
 num prob  num prob  num prob  num prob  num prob  num prob  num prob  num prob WARNING in EDDRMM: call to ZHEGV failed, returncode =   6  3     56
 num prob  num prob  num prob  num prob  num prob RMM:  30    -0.632239991877E+03    0.11854E-02    0.87580E-03  5263   0.204E-01    0.169E-02
 num prob WARNING in EDDRMM: call to ZHEGV failed, returncode =   8  4     12
 num prob  num prob RMM:  31    -0.632240108681E+03   -0.11680E-03   -0.44965E-03  5213   0.204E-01    0.195E-02
 num prob  num prob  num prob  num prob  num prob  num prob  num prob RMM:  32    -0.632239212115E+03    0.89657E-03    0.57083E-03  5028   0.203E-01    0.179E-02
 num prob  num prob  num prob  num prob  num prob  num prob  num prob RMM:  33    -0.632239299231E+03   -0.87117E-04   -0.43324E-03  4864   0.203E-01    0.204E-02
 num prob  num prob  num prob  num prob  num prob  num prob  num prob  num prob  num prob  num prob  num prob  num prob RMM:  34    -0.632238527446E+03    0.77179E-03    0.42286E-03  4852   0.203E-01    0.184E-02
 num prob  num prob  num prob  num prob  num prob  num prob  num prob  num prob  num prob RMM:  35    -0.632238608228E+03   -0.80782E-04   -0.44159E-03  4748   0.203E-01    0.186E-02
 num prob  num prob  num prob  num prob  num prob  num prob  num prob  num prob  num prob RMM:  36    -0.632238036666E+03    0.57156E-03    0.20642E-03  4749   0.203E-01    0.190E-02
 num prob  num prob  num prob  num prob  num prob  num prob  num prob  num prob  num prob  num prob  num prob RMM:  37    -0.632238111264E+03   -0.74598E-04   -0.44399E-03  4592   0.203E-01    0.219E-02
RMM:  38    -0.632237623299E+03    0.48796E-03    0.10713E-03  4790   0.203E-01    0.203E-02
RMM:  39    -0.632237627626E+03   -0.43277E-05   -0.39179E-03  5442   0.204E-01    0.123E-02
RMM:  40    -0.632237327646E+03    0.29998E-03   -0.82340E-04  4978   0.204E-01    0.914E-03
 num prob  num prob  num prob  num prob  num prob  num prob RMM:  41    -0.632237420462E+03   -0.92816E-04   -0.48087E-03  4473   0.204E-01    0.152E-02
 num prob  num prob RMM:  42    -0.632237136514E+03    0.28395E-03   -0.11529E-03  4489   0.204E-01    0.140E-02
RMM:  43    -0.632237196886E+03   -0.60372E-04   -0.46861E-03  4487   0.205E-01    0.117E-02
RMM:  44    -0.632237007606E+03    0.18928E-03   -0.22519E-03  4559   0.205E-01    0.975E-03
 num prob  num prob  num prob RMM:  45    -0.632237092860E+03   -0.85254E-04   -0.50550E-03  4405   0.206E-01    0.921E-03
 num prob RMM:  46    -0.632236967404E+03    0.12546E-03   -0.29665E-03  4294   0.206E-01    0.118E-02
RMM:  47    -0.632237049632E+03   -0.82228E-04   -0.51513E-03  4404   0.207E-01    0.116E-02
 num prob  num prob  num prob  num prob  num prob RMM:  48    -0.632236983586E+03    0.66046E-04   -0.37070E-03  4269   0.207E-01    0.111E-02
 num prob  num prob  num prob RMM:  49    -0.632237083839E+03   -0.10025E-03   -0.54314E-03  4287   0.208E-01    0.105E-02
 num prob  num prob  num prob RMM:  50    -0.632237049723E+03    0.34116E-04   -0.41277E-03  4178   0.208E-01    0.108E-02
 num prob  num prob RMM:  51    -0.632237164001E+03   -0.11428E-03   -0.56586E-03  4138   0.209E-01    0.123E-02
 num prob RMM:  52    -0.632237156893E+03    0.71080E-05   -0.45190E-03  4144   0.209E-01    0.122E-02
 num prob RMM:  53    -0.632237291860E+03   -0.13497E-03   -0.59779E-03  4049   0.210E-01    0.138E-02
WARNING in EDDRMM: call to ZHEGV failed, returncode =   8  4    148
RMM:  54    -0.632237307486E+03   -0.15626E-04   -0.48422E-03  3854   0.211E-01    0.150E-02
WARNING in EDDRMM: call to ZHEGV failed, returncode =   6  3    141
RMM:  55    -0.632237457424E+03   -0.14994E-03   -0.62447E-03  3837   0.212E-01    0.162E-02
 num prob RMM:  56    -0.632237500136E+03   -0.42712E-04   -0.52258E-03  3697   0.212E-01    0.175E-02
WARNING in EDDRMM: call to ZHEGV failed, returncode =   8  4    147
RMM:  57    -0.632237662598E+03   -0.16246E-03   -0.64823E-03  3650   0.213E-01    0.190E-02
RMM:  58    -0.632237729691E+03   -0.67093E-04   -0.55863E-03  3662   0.214E-01    0.203E-02
RMM:  59    -0.632237904544E+03   -0.17485E-03   -0.67222E-03  3593   0.215E-01    0.217E-02
 num prob  num prob RMM:  60    -0.632237992443E+03   -0.87899E-04   -0.59124E-03  3572   0.215E-01    0.229E-02
 num prob RMM:  61    -0.632238178266E+03   -0.18582E-03   -0.69528E-03  3538   0.216E-01    0.243E-02
RMM:  62    -0.632238284329E+03   -0.10606E-03   -0.62208E-03  3610   0.217E-01    0.253E-02
RMM:  63    -0.632238480109E+03   -0.19578E-03   -0.71746E-03  3474   0.218E-01    0.266E-02
 num prob  num prob RMM:  64    -0.632238602223E+03   -0.12211E-03   -0.64997E-03  3455   0.219E-01    0.279E-02
 num prob RMM:  65    -0.632238805456E+03   -0.20323E-03   -0.73782E-03  3458   0.220E-01    0.291E-02
RMM:  66    -0.632238941777E+03   -0.13632E-03   -0.67719E-03  3427   0.220E-01    0.304E-02
RMM:  67    -0.632239151362E+03   -0.20959E-03   -0.75672E-03  3362   0.221E-01    0.318E-02
 num prob RMM:  68    -0.632239299365E+03   -0.14800E-03   -0.70182E-03  3339   0.222E-01    0.331E-02
 num prob RMM:  69    -0.632239513661E+03   -0.21430E-03   -0.77593E-03  3387   0.223E-01    0.343E-02
RMM:  70    -0.632239671884E+03   -0.15822E-03   -0.72673E-03  3402   0.224E-01    0.354E-02
RMM:  71    -0.632239889833E+03   -0.21795E-03   -0.79343E-03  3327   0.225E-01    0.367E-02
 num prob RMM:  72    -0.632240056489E+03   -0.16666E-03   -0.74759E-03  3295   0.226E-01    0.383E-02
 num prob RMM:  73    -0.632240276417E+03   -0.21993E-03   -0.81050E-03  3309   0.227E-01    0.396E-02
RMM:  74    -0.632240449527E+03   -0.17311E-03   -0.77130E-03  3290   0.228E-01    0.408E-02
RMM:  75    -0.632240670650E+03   -0.22112E-03   -0.82735E-03  3299   0.229E-01    0.421E-02
 num prob RMM:  76    -0.632240848323E+03   -0.17767E-03   -0.79209E-03  3295   0.230E-01    0.433E-02
 num prob RMM:  77    -0.632241070373E+03   -0.22205E-03   -0.84250E-03  3520   0.231E-01    0.449E-02
RMM:  78    -0.632241249424E+03   -0.17905E-03   -0.81374E-03  3270   0.232E-01    0.457E-02
RMM:  79    -0.632241470230E+03   -0.22081E-03   -0.86254E-03  3318   0.233E-01    0.468E-02
RMM:  80    -0.632241651566E+03   -0.18134E-03   -0.83132E-03  3276   0.234E-01    0.480E-02
RMM:  81    -0.632241868839E+03   -0.21727E-03   -0.87775E-03  3339   0.235E-01    0.491E-02
RMM:  82    -0.632242057992E+03   -0.18915E-03   -0.89621E-03  4324   0.237E-01    0.447E-02
RMM:  83    -0.632242263949E+03   -0.20596E-03   -0.88417E-03  3942   0.237E-01    0.460E-02
RMM:  84    -0.632242442801E+03   -0.17885E-03   -0.86762E-03  3870   0.238E-01    0.473E-02
RMM:  85    -0.632242648318E+03   -0.20552E-03   -0.90519E-03  3438   0.239E-01    0.487E-02
RMM:  86    -0.632242822727E+03   -0.17441E-03   -0.88596E-03  3355   0.240E-01    0.499E-02
RMM:  87    -0.632243022190E+03   -0.19946E-03   -0.92511E-03  3380   0.241E-01    0.511E-02
RMM:  88    -0.632243191702E+03   -0.16951E-03   -0.90447E-03  3312   0.243E-01    0.524E-02
RMM:  89    -0.632243382370E+03   -0.19067E-03   -0.94574E-03  3803   0.244E-01    0.528E-02
RMM:  90    -0.632243545522E+03   -0.16315E-03   -0.93163E-03  3924   0.245E-01    0.532E-02
RMM:  91    -0.632243724300E+03   -0.17878E-03   -0.95525E-03  3468   0.246E-01    0.543E-02
RMM:  92    -0.632243881468E+03   -0.15717E-03   -0.96074E-03  3949   0.247E-01    0.538E-02
RMM:  93    -0.632244045809E+03   -0.16434E-03   -0.96942E-03  3887   0.248E-01    0.549E-02
RMM:  94    -0.632244185996E+03   -0.14019E-03   -0.95953E-03  3420   0.250E-01    0.561E-02
RMM:  95    -0.632244337003E+03   -0.15101E-03   -0.98493E-03  3289   0.251E-01    0.575E-02
RMM:  96    -0.632244462203E+03   -0.12520E-03   -0.97772E-03  3270   0.252E-01    0.587E-02
RMM:  97    -0.632244600675E+03   -0.13847E-03   -0.10260E-02  3946   0.254E-01    0.579E-02
RMM:  98    -0.632244703773E+03   -0.10310E-03   -0.99030E-03  3891   0.255E-01    0.591E-02
RMM:  99    -0.632244816105E+03   -0.11233E-03   -0.10187E-02  3457   0.256E-01    0.602E-02
 num prob RMM: 100    -0.632244899480E+03   -0.83375E-04   -0.10075E-02  3302   0.257E-01    0.616E-02
RMM: 101    -0.632244986139E+03   -0.86659E-04   -0.10324E-02  3246   0.258E-01    0.629E-02
RMM: 102    -0.632245047902E+03   -0.61762E-04   -0.10386E-02  3902   0.260E-01    0.630E-02
RMM: 103    -0.632245103713E+03   -0.55811E-04   -0.10426E-02  3522   0.261E-01    0.644E-02
RMM: 104    -0.632245132177E+03   -0.28464E-04   -0.10401E-02  3288   0.262E-01    0.657E-02
RMM: 105    -0.632245156603E+03   -0.24426E-04   -0.10606E-02  3223   0.264E-01    0.671E-02
RMM: 106    -0.632245149527E+03    0.70758E-05   -0.10543E-02  3208   0.265E-01    0.685E-02
RMM: 107    -0.632245136886E+03    0.12641E-04   -0.10825E-02  3844   0.267E-01    0.690E-02
RMM: 108    -0.632245089234E+03    0.47652E-04   -0.10682E-02  3369   0.268E-01    0.703E-02
RMM: 109    -0.632245033282E+03    0.55953E-04   -0.10884E-02  3275   0.269E-01    0.716E-02
RMM: 110    -0.632244940873E+03    0.92409E-04   -0.10804E-02  3200   0.271E-01    0.731E-02
RMM: 111    -0.632244836264E+03    0.10461E-03   -0.11024E-02  3410   0.272E-01    0.743E-02
RMM: 112    -0.632244694501E+03    0.14176E-03   -0.11139E-02  3898   0.274E-01    0.740E-02
RMM: 113    -0.632244533561E+03    0.16094E-03   -0.11121E-02  3875   0.275E-01    0.752E-02
RMM: 114    -0.632244333368E+03    0.20019E-03   -0.11098E-02  3731   0.277E-01    0.763E-02
RMM: 115    -0.632244114399E+03    0.21897E-03   -0.11275E-02  3603   0.278E-01    0.775E-02
 num prob RMM: 116    -0.632243848574E+03    0.26583E-03   -0.11155E-02  3339   0.280E-01    0.789E-02
RMM: 117    -0.632243577141E+03    0.27143E-03   -0.11898E-02  4081   0.282E-01    0.774E-02
RMM: 118    -0.632243231040E+03    0.34610E-03   -0.11123E-02  3929   0.283E-01    0.790E-02
 num prob RMM: 119    -0.632242874344E+03    0.35670E-03   -0.11490E-02  3653   0.285E-01    0.806E-02
 num prob RMM: 120    -0.632242457756E+03    0.41659E-03   -0.11345E-02  3364   0.286E-01    0.821E-02
RMM: 121    -0.632242018931E+03    0.43883E-03   -0.11593E-02  3375   0.288E-01    0.837E-02
RMM: 122    -0.632241562423E+03    0.45651E-03   -0.12499E-02  4451   0.291E-01    0.821E-02
RMM: 123    -0.632241045927E+03    0.51650E-03   -0.11958E-02  4078   0.292E-01    0.825E-02
RMM: 124    -0.632240463344E+03    0.58258E-03   -0.11734E-02  3985   0.294E-01    0.835E-02
RMM: 125    -0.632239858112E+03    0.60523E-03   -0.12096E-02  3990   0.295E-01    0.843E-02
RMM: 126    -0.632239190174E+03    0.66794E-03   -0.12110E-02  4122   0.297E-01    0.845E-02
RMM: 127    -0.632238477917E+03    0.71226E-03   -0.12128E-02  3992   0.299E-01    0.857E-02
RMM: 128    -0.632237685125E+03    0.79279E-03   -0.11888E-02  3922   0.300E-01    0.872E-02
RMM: 129    -0.632236863070E+03    0.82206E-03   -0.12189E-02  3862   0.302E-01    0.889E-02
RMM: 130    -0.632235967077E+03    0.89599E-03   -0.12071E-02  3632   0.304E-01    0.907E-02
RMM: 131    -0.632235041488E+03    0.92559E-03   -0.12443E-02  3452   0.306E-01    0.925E-02
RMM: 132    -0.632234049747E+03    0.99174E-03   -0.12508E-02  3897   0.308E-01    0.940E-02
RMM: 133    -0.632233018126E+03    0.10316E-02   -0.12765E-02  3440   0.310E-01    0.959E-02
RMM: 134    -0.632231909634E+03    0.11085E-02   -0.12679E-02  3304   0.311E-01    0.979E-02
RMM: 135    -0.632230772766E+03    0.11369E-02   -0.13161E-02  3317   0.313E-01    0.999E-02
RMM: 136    -0.632229561404E+03    0.12114E-02   -0.13146E-02  3394   0.315E-01    0.102E-01
RMM: 137    -0.632228333307E+03    0.12281E-02   -0.13820E-02  3903   0.317E-01    0.104E-01
RMM: 138    -0.632227020839E+03    0.13125E-02   -0.13669E-02  3652   0.319E-01    0.106E-01
RMM: 139    -0.632225681508E+03    0.13393E-02   -0.14202E-02  3296   0.321E-01    0.108E-01
RMM: 140    -0.632224278827E+03    0.14027E-02   -0.14357E-02  3276   0.323E-01    0.110E-01
RMM: 141    -0.632222847418E+03    0.14314E-02   -0.14900E-02  3290   0.325E-01    0.112E-01
RMM: 142    -0.632221382443E+03    0.14650E-02   -0.15496E-02  3924   0.328E-01    0.114E-01
RMM: 143    -0.632219868513E+03    0.15139E-02   -0.15726E-02  3869   0.330E-01    0.116E-01
RMM: 144    -0.632218320921E+03    0.15476E-02   -0.16221E-02  3605   0.332E-01    0.118E-01
RMM: 145    -0.632216739912E+03    0.15810E-02   -0.16725E-02  3545   0.334E-01    0.120E-01
RMM: 146    -0.632215138791E+03    0.16011E-02   -0.17375E-02  3605   0.336E-01    0.122E-01
RMM: 147    -0.632213535538E+03    0.16033E-02   -0.18619E-02  4405   0.339E-01    0.122E-01
RMM: 148    -0.632211891433E+03    0.16441E-02   -0.18659E-02  4001   0.340E-01    0.124E-01
RMM: 149    -0.632210232746E+03    0.16587E-02   -0.19418E-02  4012   0.342E-01    0.126E-01
WARNING in EDDRMM: call to ZHEGV failed, returncode =   6  3    147
RMM: 150    -0.632208574981E+03    0.16578E-02   -0.20247E-02  3981   0.344E-01
 -----------------------------------------------------------------------------
|                                                                             |
|           W    W    AA    RRRRR   N    N  II  N    N   GGGG   !!!           |
|           W    W   A  A   R    R  NN   N  II  NN   N  G    G  !!!           |
|           W    W  A    A  R    R  N N  N  II  N N  N  G       !!!           |
|           W WW W  AAAAAA  RRRRR   N  N N  II  N  N N  G  GGG   !            |
|           WW  WW  A    A  R   R   N   NN  II  N   NN  G    G                |
|           W    W  A    A  R    R  N    N  II  N    N   GGGG   !!!           |
|                                                                             |
|     The electronic self-consistency was not achieved in the given           |
|     number of steps (NELM). The forces and other quantities evaluated       |
|     might not be reliable so examine the results carefully. If you find     |
|     spurious results, we suggest increasing NELM, if you were close to      |
|     convergence or switching to a different ALGO or adjusting the           |
|     density mixing parameters otherwise.                                    |
|                                                                             |
 -----------------------------------------------------------------------------

   5 F= -.63220857E+03 E0= -.63213591E+03  d E =-.576132E+01
 curvature: -17.38 expect dE=-0.515E+02 dE for cont linesearch -0.813E+00
 ZBRENT: bisectioning
 opt :   0.2346  next Energy=  -632.690891 (dE=-0.624E+01)
 bond charge predicted
       N       E                     dE             d eps       ncg     rms          rms(c)
DAV:   1    -0.601001302745E+03    0.31209E+02   -0.28628E+03  4056   0.619E+01    0.182E+01
RMM:   2    -0.630046709855E+03   -0.29045E+02   -0.36961E+02  4296   0.188E+01    0.890E+00
RMM:   3    -0.636461767285E+03   -0.64151E+01   -0.72846E+01  4586   0.726E+00    0.117E+01
RMM:   4    -0.636529115278E+03   -0.67348E-01   -0.15452E+01  5401   0.308E+00    0.107E+01
RMM:   5    -0.634302212782E+03    0.22269E+01   -0.71535E+00  5228   0.288E+00    0.425E+00
RMM:   6    -0.634217637726E+03    0.84575E-01   -0.24302E+00  5958   0.134E+00    0.261E+00
RMM:   7    -0.634355696649E+03   -0.13806E+00   -0.15031E+00  6046   0.887E-01    0.264E+00
RMM:   8    -0.634390774523E+03   -0.35078E-01   -0.12320E+00  5922   0.768E-01    0.195E+00
RMM:   9    -0.634447135338E+03   -0.56361E-01   -0.15830E+00  5882   0.910E-01    0.416E-01
RMM:  10    -0.634555900830E+03   -0.10877E+00   -0.97825E-01  6101   0.613E-01    0.698E-01
RMM:  11    -0.634660322390E+03   -0.10442E+00   -0.98179E-01  6112   0.531E-01    0.102E+00
RMM:  12    -0.634756573070E+03   -0.96251E-01   -0.92148E-01  6217   0.475E-01    0.128E+00
RMM:  13    -0.634881717725E+03   -0.12514E+00   -0.10517E+00  6048   0.457E-01    0.173E+00
RMM:  14    -0.634960288818E+03   -0.78571E-01   -0.10409E+00  5851   0.451E-01    0.158E+00
RMM:  15    -0.635112506039E+03   -0.15222E+00   -0.13446E+00  6191   0.409E-01    0.153E+00
RMM:  16    -0.635366623425E+03   -0.25412E+00   -0.17571E+00  6233   0.398E-01    0.127E+00
RMM:  17    -0.635632015370E+03   -0.26539E+00   -0.18891E+00  6107   0.401E-01    0.884E-01
RMM:  18    -0.636042316438E+03   -0.41030E+00   -0.29892E+00  5935   0.425E-01    0.838E-01
RMM:  19    -0.636188654513E+03   -0.14634E+00   -0.10203E+00  5743   0.317E-01    0.111E+00
RMM:  20    -0.636215707800E+03   -0.27053E-01   -0.24439E-01  5691   0.235E-01    0.116E+00
WARNING in EDDRMM: call to ZHEGV failed, returncode =   8  4    141
WARNING in EDDRMM: call to ZHEGV failed, returncode =   8  4    166
RMM:  21    -0.636223104972E+03   -0.73972E-02   -0.78405E-02  5588   0.194E-01    0.118E+00
RMM:  22    -0.636228725283E+03   -0.56203E-02   -0.53973E-02  5896   0.172E-01    0.119E+00
RMM:  23    -0.636231339801E+03   -0.26145E-02   -0.18307E-02  5861   0.158E-01    0.122E+00
RMM:  24    -0.636239887325E+03   -0.85475E-02   -0.31717E-02  5922   0.172E-01    0.136E+00
RMM:  25    -0.636270155044E+03   -0.30268E-01   -0.76267E-02  6244   0.230E-01    0.181E+00
RMM:  26    -0.636304766082E+03   -0.34611E-01   -0.60794E-02  6201   0.209E-01    0.225E+00
RMM:  27    -0.636318245475E+03   -0.13479E-01   -0.16811E-02  6059   0.158E-01    0.237E+00
RMM:  28    -0.636361026097E+03   -0.42781E-01   -0.67276E-02  6240   0.210E-01    0.275E+00
RMM:  29    -0.636386548031E+03   -0.25522E-01   -0.15928E-02  6094   0.164E-01    0.297E+00
RMM:  30    -0.636384538073E+03    0.20100E-02    0.87492E-03  5707   0.131E-01    0.296E+00
RMM:  31    -0.636375788081E+03    0.87500E-02    0.96428E-03  5623   0.129E-01    0.293E+00
RMM:  32    -0.636379347604E+03   -0.35595E-02   -0.31836E-03  5537   0.129E-01    0.295E+00
RMM:  33    -0.636345314224E+03    0.34033E-01    0.11648E-02  6280   0.182E-01    0.270E+00
RMM:  34    -0.636338505994E+03    0.68082E-02   -0.85759E-03  5756   0.138E-01    0.263E+00
RMM:  35    -0.636337126903E+03    0.13791E-02    0.10997E-02  5333   0.119E-01    0.262E+00
RMM:  36    -0.636310219506E+03    0.26907E-01   -0.29059E-02  6238   0.166E-01    0.236E+00
RMM:  37    -0.636304428376E+03    0.57911E-02    0.13642E-02  5638   0.132E-01    0.232E+00
slurmstepd: error: *** STEP 67416072.0 ON b01r3n19 CANCELLED AT 2024-07-18T10:06:29 ***
slurmstepd: error: *** JOB 67416072 ON b01r3n19 CANCELLED AT 2024-07-18T10:06:29 ***
srun: Job step aborted: Waiting up to 32 seconds for job step to finish.
