srun: ROUTE: split_hostlist: hl=b01r3n19 tree_width 0
 running on    4 total cores
 distrk:  each k-point on    1 cores,    4 groups
 distr:  one band on    1 cores,    1 groups
 HIP runtime initialized ...    4 DCUs will be used
 Created    4 streams on each DCU
 vasp.6.3.2 27Jun22 (build Mar 15 2023 15:45:48) complex                        
  
 POSCAR found type information on POSCAR C F SiK 
 POSCAR found :  4 types and      98 ions
 Reading from existing POTCAR
 scaLAPACK will be used selectively (only on CPU)
 Reading from existing POTCAR
 LDA part: xc-table for Pade appr. of Perdew
 POSCAR found type information on POSCAR C F SiK 
 POSCAR found :  4 types and      98 ions
 Optimize memory usage for KPAR
 POSCAR, INCAR and KPOINTS ok, starting setup
 FFT: planning ... GRIDC
 FFT: planning ... GRID_SOFT
 FFT: planning ... GRID
 WAVECAR not read
 entering main loop
       N       E                     dE             d eps       ncg     rms          rms(c)
DAV:   1     0.213991716216E+04    0.21399E+04   -0.16906E+05  3500   0.137E+03
DAV:   2    -0.391713126478E+03   -0.25316E+04   -0.24199E+04  4394   0.269E+02
DAV:   3    -0.705079916574E+03   -0.31337E+03   -0.30666E+03  4544   0.882E+01
DAV:   4    -0.723004291210E+03   -0.17924E+02   -0.17789E+02  4712   0.223E+01
DAV:   5    -0.723749421258E+03   -0.74513E+00   -0.74386E+00  4880   0.414E+00    0.448E+01
RMM:   6    -0.646256885086E+03    0.77493E+02   -0.23832E+02  3519   0.207E+01    0.160E+01
RMM:   7    -0.647768409419E+03   -0.15115E+01   -0.87441E+01  3693   0.136E+01    0.105E+01
RMM:   8    -0.646480635188E+03    0.12878E+01   -0.10243E+01  3746   0.533E+00    0.723E+00
RMM:   9    -0.646119380116E+03    0.36126E+00   -0.79499E+00  3575   0.422E+00    0.321E+00
RMM:  10    -0.645617697789E+03    0.50168E+00   -0.80025E-01  3710   0.166E+00    0.224E+00
RMM:  11    -0.645482684042E+03    0.13501E+00   -0.44421E-01  4219   0.904E-01    0.136E+00
RMM:  12    -0.645437253247E+03    0.45431E-01   -0.93970E-01  3960   0.126E+00    0.882E-01
RMM:  13    -0.645369553046E+03    0.67700E-01   -0.13727E-01  3624   0.596E-01    0.575E-01
RMM:  14    -0.645351984834E+03    0.17568E-01   -0.67911E-02  4186   0.365E-01    0.366E-01
RMM:  15    -0.645333664850E+03    0.18320E-01   -0.33510E-02  5075   0.207E-01    0.249E-01
RMM:  16    -0.645335726413E+03   -0.20616E-02   -0.48469E-02  4887   0.226E-01    0.409E-01
RMM:  17    -0.645336142833E+03   -0.41642E-03   -0.16640E-02  5568   0.150E-01    0.181E-01
RMM:  18    -0.645338108084E+03   -0.19653E-02   -0.12088E-02  4937   0.142E-01    0.107E-01
RMM:  19    -0.645340998650E+03   -0.28906E-02   -0.53397E-03  5662   0.927E-02    0.131E-01
RMM:  20    -0.645343549466E+03   -0.25508E-02   -0.28828E-03  5600   0.612E-02    0.824E-02
RMM:  21    -0.645347458390E+03   -0.39089E-02   -0.25965E-03  5438   0.603E-02    0.618E-02
RMM:  22    -0.645348181518E+03   -0.72313E-03   -0.13361E-03  5797   0.405E-02    0.311E-02
RMM:  23    -0.645348967588E+03   -0.78607E-03   -0.66213E-04  5962   0.322E-02    0.300E-02
RMM:  24    -0.645349515401E+03   -0.54781E-03   -0.37629E-04  5819   0.240E-02    0.142E-02
WARNING in EDDRMM: call to ZHEGV failed, returncode =   8  4    184
WARNING in EDDRMM: call to ZHEGV failed, returncode =   8  4     22
RMM:  25    -0.645349646988E+03   -0.13159E-03   -0.23438E-04  5953   0.171E-02    0.907E-03
WARNING in EDDRMM: call to ZHEGV failed, returncode =   8  4     39
RMM:  26    -0.645349841534E+03   -0.19455E-03   -0.11588E-04  5964   0.139E-02    0.498E-03
RMM:  27    -0.645349931818E+03   -0.90284E-04   -0.84874E-05  5479   0.109E-02    0.503E-03
WARNING in EDDRMM: call to ZHEGV failed, returncode =   8  4     72
WARNING in EDDRMM: call to ZHEGV failed, returncode =   8  4     73
 num prob WARNING in EDDRMM: call to ZHEGV failed, returncode =   8  4     52
 num prob RMM:  28    -0.645349975432E+03   -0.43614E-04   -0.54907E-05  4938   0.901E-03    0.272E-03
 num prob  num prob  num prob  num prob  num prob RMM:  29    -0.645350001627E+03   -0.26194E-04   -0.35674E-05  4842   0.763E-03    0.124E-03
 num prob  num prob  num prob  num prob  num prob  num prob  num prob  num prob  num prob  num prob  num prob  num prob  num prob  num prob  num prob  num prob  num prob  num prob  num prob  num prob  num prob  num prob  num prob  num prob  num prob  num prob  num prob  num prob  num prob  num prob  num prob  num prob  num prob  num prob  num prob  num prob  num prob  num prob  num prob  num prob  num prob  num prob  num prob  num prob  num prob  num prob  num prob  num prob RMM:  30    -0.645350008988E+03   -0.73608E-05   -0.22736E-05  4073   0.621E-03    0.130E-03
 num prob  num prob  num prob  num prob  num prob  num prob  num prob  num prob  num prob  num prob  num prob  num prob  num prob  num prob  num prob  num prob  num prob  num prob  num prob  num prob  num prob  num prob  num prob  num prob  num prob  num prob  num prob  num prob  num prob  num prob  num prob  num prob  num prob  num prob  num prob  num prob  num prob  num prob  num prob  num prob  num prob  num prob  num prob  num prob RMM:  31    -0.645350013823E+03   -0.48349E-05   -0.14875E-05  4041   0.549E-03    0.801E-04
 num prob  num prob  num prob  num prob  num prob  num prob  num prob  num prob  num prob  num prob  num prob  num prob  num prob  num prob  num prob  num prob  num prob  num prob  num prob  num prob  num prob  num prob  num prob  num prob  num prob  num prob  num prob  num prob  num prob  num prob  num prob  num prob  num prob  num prob  num prob  num prob  num prob  num prob  num prob  num prob  num prob  num prob  num prob  num prob  num prob  num prob  num prob  num prob  num prob  num prob  num prob  num prob  num prob  num prob  num prob  num prob  num prob  num prob  num prob  num prob  num prob  num prob  num prob  num prob  num prob  num prob  num prob  num prob  num prob  num prob  num prob  num prob  num prob  num prob  num prob  num prob  num prob RMM:  32    -0.645350016068E+03   -0.22453E-05   -0.95705E-06  3409   0.489E-03    0.528E-04
 num prob  num prob  num prob  num prob  num prob  num prob  num prob  num prob  num prob  num prob  num prob  num prob  num prob  num prob  num prob  num prob  num prob  num prob  num prob  num prob  num prob  num prob  num prob  num prob  num prob  num prob  num prob  num prob  num prob  num prob  num prob  num prob  num prob  num prob  num prob  num prob  num prob  num prob  num prob  num prob  num prob  num prob  num prob  num prob  num prob  num prob  num prob  num prob  num prob  num prob  num prob  num prob  num prob  num prob  num prob  num prob  num prob  num prob  num prob  num prob  num prob  num prob  num prob  num prob  num prob  num prob  num prob  num prob  num prob  num prob  num prob  num prob  num prob  num prob RMM:  33    -0.645350017895E+03   -0.18266E-05   -0.88706E-06  3463   0.460E-03    0.555E-04
 num prob  num prob  num prob  num prob  num prob  num prob  num prob  num prob  num prob  num prob  num prob  num prob  num prob  num prob  num prob  num prob  num prob  num prob  num prob  num prob  num prob  num prob  num prob  num prob  num prob  num prob  num prob  num prob  num prob  num prob  num prob  num prob  num prob  num prob  num prob  num prob  num prob  num prob  num prob  num prob  num prob  num prob  num prob  num prob  num prob  num prob  num prob  num prob  num prob  num prob  num prob  num prob  num prob  num prob  num prob  num prob  num prob  num prob RMM:  34    -0.645350018959E+03   -0.10645E-05   -0.65994E-06  3109   0.425E-03    0.324E-04
 num prob  num prob  num prob  num prob  num prob  num prob  num prob  num prob  num prob  num prob  num prob WARNING in EDDRMM: call to ZHEGV failed, returncode =   6  3     53
 num prob  num prob  num prob  num prob  num prob  num prob  num prob  num prob  num prob  num prob  num prob  num prob  num prob  num prob  num prob  num prob  num prob  num prob  num prob  num prob  num prob  num prob  num prob  num prob  num prob  num prob  num prob  num prob  num prob  num prob  num prob  num prob  num prob  num prob  num prob  num prob  num prob  num prob  num prob  num prob  num prob  num prob  num prob  num prob  num prob  num prob  num prob  num prob  num prob  num prob  num prob  num prob  num prob  num prob  num prob  num prob  num prob  num prob  num prob  num prob  num prob  num prob  num prob  num prob RMM:  35    -0.645350019325E+03   -0.36588E-06   -0.56107E-06  3138   0.400E-03
   1 F= -.64535002E+03 E0= -.64528890E+03  d E =-.645350E+03
 BRION: g(F)=  0.876E-02 g(S)=  0.000E+00
 bond charge predicted
       N       E                     dE             d eps       ncg     rms          rms(c)
DAV:   1    -0.645353702526E+03   -0.36836E-02   -0.32343E-01  3696   0.966E-01    0.109E-01
RMM:   2    -0.645355474491E+03   -0.17720E-02   -0.19878E-02  3569   0.239E-01    0.821E-02
RMM:   3    -0.645355590142E+03   -0.11565E-03   -0.30981E-03  4290   0.978E-02    0.672E-02
RMM:   4    -0.645355535255E+03    0.54887E-04   -0.47561E-04  3982   0.401E-02    0.376E-02
RMM:   5    -0.645355531702E+03    0.35526E-05   -0.22318E-04  3866   0.256E-02    0.258E-02
RMM:   6    -0.645355520972E+03    0.10730E-04   -0.58847E-05  4257   0.134E-02    0.154E-02
RMM:   7    -0.645355514142E+03    0.68301E-05   -0.19341E-05  3885   0.641E-03    0.896E-03
RMM:   8    -0.645355514199E+03   -0.56796E-07   -0.50436E-05  3768   0.864E-03    0.721E-03
RMM:   9    -0.645355514296E+03   -0.97294E-07   -0.75106E-06  3062   0.459E-03
   2 F= -.64535551E+03 E0= -.64529452E+03  d E =-.549497E-02
 BRION: g(F)=  0.499E-02 g(S)=  0.000E+00 retain N=  1 mean eig= 0.59
 eig:   0.586
 bond charge predicted
       N       E                     dE             d eps       ncg     rms          rms(c)
DAV:   1    -0.645356049845E+03   -0.53565E-03   -0.24776E-01  3720   0.815E-01    0.862E-02
RMM:   2    -0.645357362795E+03   -0.13130E-02   -0.13991E-02  3558   0.175E-01    0.633E-02
RMM:   3    -0.645357400273E+03   -0.37477E-04   -0.15803E-03  4103   0.676E-02    0.457E-02
RMM:   4    -0.645357394306E+03    0.59668E-05   -0.27803E-04  3962   0.281E-02    0.284E-02
RMM:   5    -0.645357388398E+03    0.59081E-05   -0.66064E-05  3535   0.139E-02    0.177E-02
RMM:   6    -0.645357385651E+03    0.27470E-05   -0.26329E-05  3455   0.837E-03    0.944E-03
RMM:   7    -0.645357385232E+03    0.41917E-06   -0.10295E-05  2881   0.483E-03    0.355E-03
RMM:   8    -0.645357386361E+03   -0.11293E-05   -0.42238E-06  2442   0.263E-03    0.272E-03
RMM:   9    -0.645357386850E+03   -0.48959E-06   -0.18852E-06  2149   0.171E-03
   3 F= -.64535739E+03 E0= -.64529651E+03  d E =-.187255E-02
 BRION: g(F)=  0.331E-02 g(S)=  0.000E+00 retain N=  2 mean eig= 0.76
 eig:   0.756  0.756
 bond charge predicted
       N       E                     dE             d eps       ncg     rms          rms(c)
DAV:   1    -0.645359461724E+03   -0.20754E-02   -0.14412E-01  3776   0.522E-01    0.639E-02
RMM:   2    -0.645359957289E+03   -0.49557E-03   -0.55440E-03  3550   0.122E-01    0.384E-02
RMM:   3    -0.645359998056E+03   -0.40767E-04   -0.76891E-04  4104   0.492E-02    0.284E-02
RMM:   4    -0.645360002565E+03   -0.45084E-05   -0.11907E-04  4154   0.193E-02    0.198E-02
RMM:   5    -0.645360010737E+03   -0.81727E-05   -0.44615E-05  3577   0.103E-02    0.158E-02
RMM:   6    -0.645360011031E+03   -0.29389E-06   -0.20273E-05  3514   0.651E-03    0.553E-03
RMM:   7    -0.645360014241E+03   -0.32098E-05   -0.81436E-06  2427   0.345E-03    0.312E-03
RMM:   8    -0.645360016714E+03   -0.24725E-05   -0.51312E-06  2170   0.231E-03    0.334E-03
RMM:   9    -0.645360018822E+03   -0.21081E-05   -0.35291E-06  2132   0.196E-03    0.173E-03
RMM:  10    -0.645360020837E+03   -0.20149E-05   -0.19132E-06  2064   0.128E-03    0.127E-03
RMM:  11    -0.645360022100E+03   -0.12636E-05   -0.12477E-06  1976   0.104E-03    0.904E-04
RMM:  12    -0.645360023371E+03   -0.12706E-05   -0.81176E-07  1338   0.775E-04    0.465E-04
RMM:  13    -0.645360023846E+03   -0.47569E-06   -0.56084E-07  1292   0.699E-04
   4 F= -.64536002E+03 E0= -.64529925E+03  d E =-.263700E-02
 BRION: g(F)=  0.164E-02 g(S)=  0.000E+00 retain N=  2 mean eig= 1.49
 eig:   0.340  2.648
 bond charge predicted
       N       E                     dE             d eps       ncg     rms          rms(c)
DAV:   1    -0.645361743173E+03   -0.17198E-02   -0.79238E-02  3680   0.268E-01    0.442E-02
RMM:   2    -0.645361902278E+03   -0.15911E-03   -0.18720E-03  3545   0.614E-02    0.207E-02
RMM:   3    -0.645361928261E+03   -0.25982E-04   -0.27569E-04  3945   0.255E-02    0.140E-02
RMM:   4    -0.645361935995E+03   -0.77336E-05   -0.45709E-05  4044   0.102E-02    0.913E-03
RMM:   5    -0.645361944947E+03   -0.89521E-05   -0.18498E-05  3019   0.504E-03    0.955E-03
RMM:   6    -0.645361947941E+03   -0.29947E-05   -0.96971E-06  2393   0.330E-03    0.217E-03
RMM:   7    -0.645361950140E+03   -0.21991E-05   -0.49819E-06  2119   0.189E-03    0.171E-03
RMM:   8    -0.645361951810E+03   -0.16694E-05   -0.30508E-06  2036   0.131E-03    0.161E-03
RMM:   9    -0.645361953771E+03   -0.19609E-05   -0.20196E-06  1896   0.107E-03    0.135E-03
RMM:  10    -0.645361955006E+03   -0.12355E-05   -0.12934E-06  1251   0.829E-04    0.902E-04
RMM:  11    -0.645361955649E+03   -0.64271E-06   -0.82202E-07  1189   0.742E-04
   5 F= -.64536196E+03 E0= -.64530127E+03  d E =-.193180E-02
 BRION: g(F)=  0.158E-02 g(S)=  0.000E+00 retain N=  3 mean eig= 3.59
 eig:   0.314  2.566  7.904
 bond charge predicted
       N       E                     dE             d eps       ncg     rms          rms(c)
DAV:   1    -0.645366146741E+03   -0.41917E-02   -0.17655E+00  3584   0.125E+00    0.207E-01
RMM:   2    -0.645369515133E+03   -0.33684E-02   -0.40912E-02  3548   0.286E-01    0.964E-02
RMM:   3    -0.645370046884E+03   -0.53175E-03   -0.60399E-03  3952   0.118E-01    0.644E-02
RMM:   4    -0.645370149976E+03   -0.10309E-03   -0.94277E-04  4356   0.468E-02    0.420E-02
RMM:   5    -0.645370276049E+03   -0.12607E-03   -0.35952E-04  3751   0.218E-02    0.447E-02
RMM:   6    -0.645370307750E+03   -0.31701E-04   -0.19527E-04  3668   0.143E-02    0.974E-03
RMM:   7    -0.645370336332E+03   -0.28582E-04   -0.10171E-04  3893   0.805E-03    0.792E-03
RMM:   8    -0.645370358177E+03   -0.21845E-04   -0.58741E-05  2740   0.473E-03    0.720E-03
RMM:   9    -0.645370387109E+03   -0.28932E-04   -0.37956E-05  2646   0.391E-03    0.618E-03
RMM:  10    -0.645370408630E+03   -0.21521E-04   -0.24785E-05  2398   0.301E-03    0.425E-03
RMM:  11    -0.645370422713E+03   -0.14083E-04   -0.15503E-05  2293   0.240E-03    0.237E-03
RMM:  12    -0.645370442493E+03   -0.19780E-04   -0.11333E-05  2379   0.219E-03    0.145E-03
RMM:  13    -0.645370444203E+03   -0.17091E-05   -0.60365E-06  1560   0.129E-03    0.941E-04
RMM:  14    -0.645370450365E+03   -0.61625E-05   -0.45247E-06  2050   0.142E-03    0.731E-04
RMM:  15    -0.645370456011E+03   -0.56458E-05   -0.37391E-06  1800   0.132E-03    0.888E-04
RMM:  16    -0.645370456365E+03   -0.35416E-06   -0.17961E-06  1163   0.831E-04
   6 F= -.64537046E+03 E0= -.64531018E+03  d E =-.850072E-02
 BRION: g(F)=  0.137E-02 g(S)=  0.000E+00
 BRIONS problems: POTIM should be increased
 retain N=  1 mean eig=13.05
 eig:  13.045
 bond charge predicted
       N       E                     dE             d eps       ncg     rms          rms(c)
DAV:   1    -0.645373259322E+03   -0.28033E-02   -0.24581E+00  3536   0.148E+00    0.245E-01
RMM:   2    -0.645377906800E+03   -0.46475E-02   -0.56924E-02  3548   0.337E-01    0.113E-01
RMM:   3    -0.645378612305E+03   -0.70551E-03   -0.81740E-03  3954   0.139E-01    0.750E-02
RMM:   4    -0.645378752344E+03   -0.14004E-03   -0.13540E-03  4358   0.552E-02    0.492E-02
RMM:   5    -0.645378920026E+03   -0.16768E-03   -0.53829E-04  3750   0.260E-02    0.523E-02
RMM:   6    -0.645378959634E+03   -0.39608E-04   -0.28943E-04  3705   0.170E-02    0.114E-02
RMM:   7    -0.645378998351E+03   -0.38717E-04   -0.15317E-04  4122   0.960E-03    0.941E-03
RMM:   8    -0.645379028017E+03   -0.29666E-04   -0.88776E-05  3090   0.565E-03    0.874E-03
RMM:   9    -0.645379064754E+03   -0.36737E-04   -0.56231E-05  2803   0.455E-03    0.753E-03
RMM:  10    -0.645379093946E+03   -0.29192E-04   -0.36781E-05  2546   0.357E-03    0.501E-03
RMM:  11    -0.645379112285E+03   -0.18338E-04   -0.22708E-05  2397   0.281E-03    0.273E-03
RMM:  12    -0.645379136394E+03   -0.24109E-04   -0.15793E-05  2463   0.248E-03    0.163E-03
RMM:  13    -0.645379139353E+03   -0.29589E-05   -0.87067E-06  1733   0.148E-03    0.113E-03
RMM:  14    -0.645379148686E+03   -0.93335E-05   -0.66125E-06  2123   0.169E-03    0.764E-04
RMM:  15    -0.645379156397E+03   -0.77109E-05   -0.52239E-06  1921   0.150E-03    0.103E-03
RMM:  16    -0.645379157045E+03   -0.64812E-06   -0.25194E-06  1242   0.924E-04
   7 F= -.64537916E+03 E0= -.64531940E+03  d E =-.870068E-02
 BRION: g(F)=  0.106E-02 g(S)=  0.000E+00
 BRIONS problems: POTIM should be increased
 retain N=  1 mean eig=21.40
 eig:  21.401
 bond charge predicted
       N       E                     dE             d eps       ncg     rms          rms(c)
DAV:   1    -0.645373016828E+03    0.61396E-02   -0.75616E+00  3508   0.260E+00    0.422E-01
RMM:   2    -0.645386749012E+03   -0.13732E-01   -0.17103E-01  3550   0.590E-01    0.192E-01
RMM:   3    -0.645388809734E+03   -0.20607E-02   -0.24313E-02  3953   0.242E-01    0.128E-01
RMM:   4    -0.645389151371E+03   -0.34164E-03   -0.39747E-03  4356   0.956E-02    0.845E-02
RMM:   5    -0.645389555530E+03   -0.40416E-03   -0.15090E-03  3743   0.446E-02    0.900E-02
RMM:   6    -0.645389615086E+03   -0.59557E-04   -0.78450E-04  3739   0.292E-02    0.193E-02
RMM:   7    -0.645389703261E+03   -0.88174E-04   -0.40213E-04  4631   0.162E-02    0.159E-02
RMM:   8    -0.645389770542E+03   -0.67281E-04   -0.23726E-04  4122   0.933E-03    0.143E-02
RMM:   9    -0.645389854204E+03   -0.83662E-04   -0.15309E-04  3690   0.743E-03    0.122E-02
RMM:  10    -0.645389921854E+03   -0.67651E-04   -0.10225E-04  3120   0.588E-03    0.810E-03
RMM:  11    -0.645389963203E+03   -0.41348E-04   -0.64196E-05  2987   0.457E-03    0.476E-03
RMM:  12    -0.645390016048E+03   -0.52845E-04   -0.43487E-05  2867   0.391E-03    0.276E-03
RMM:  13    -0.645390024506E+03   -0.84584E-05   -0.25189E-05  2224   0.235E-03    0.205E-03
RMM:  14    -0.645390045930E+03   -0.21424E-04   -0.18858E-05  2484   0.279E-03    0.144E-03
RMM:  15    -0.645390064430E+03   -0.18500E-04   -0.14255E-05  2424   0.237E-03    0.165E-03
RMM:  16    -0.645390067578E+03   -0.31479E-05   -0.71910E-06  1751   0.142E-03    0.648E-04
RMM:  17    -0.645390073029E+03   -0.54518E-05   -0.56543E-06  2183   0.165E-03    0.107E-03
RMM:  18    -0.645390073676E+03   -0.64621E-06   -0.32581E-06  1524   0.109E-03
   8 F= -.64539007E+03 E0= -.64533120E+03  d E =-.109166E-01
 BRION: g(F)=  0.698E-03 g(S)=  0.000E+00
 BRIONS problems: POTIM should be increased
 retain N=  1 mean eig=17.89
 eig:  17.886
 bond charge predicted
       N       E                     dE             d eps       ncg     rms          rms(c)
DAV:   1    -0.645390434885E+03   -0.36186E-03   -0.17308E-02  3760   0.171E-01    0.198E-02
RMM:   2    -0.645390486428E+03   -0.51543E-04   -0.56140E-04  3507   0.372E-02    0.952E-03
RMM:   3    -0.645390491757E+03   -0.53293E-05   -0.74238E-05  3893   0.148E-02    0.697E-03
RMM:   4    -0.645390492748E+03   -0.99081E-06   -0.11946E-05  2799   0.575E-03    0.525E-03
RMM:   5    -0.645390493655E+03   -0.90666E-06   -0.49649E-06  2221   0.295E-03
   9 F= -.64539049E+03 E0= -.64533159E+03  d E =-.419979E-03
 BRION: g(F)=  0.652E-03 g(S)=  0.000E+00 retain N=  1 mean eig= 1.35
 eig:   1.352
 bond charge predicted
       N       E                     dE             d eps       ncg     rms          rms(c)
DAV:   1    -0.645390939392E+03   -0.44664E-03   -0.32231E-02  3664   0.175E-01    0.260E-02
RMM:   2    -0.645391014938E+03   -0.75547E-04   -0.81636E-04  3521   0.391E-02    0.111E-02
RMM:   3    -0.645391027030E+03   -0.12091E-04   -0.10430E-04  3937   0.154E-02    0.795E-03
RMM:   4    -0.645391031225E+03   -0.41948E-05   -0.17608E-05  2925   0.602E-03    0.647E-03
RMM:   5    -0.645391034775E+03   -0.35500E-05   -0.81056E-06  2272   0.302E-03    0.483E-03
RMM:   6    -0.645391037823E+03   -0.30479E-05   -0.49819E-06  2111   0.210E-03    0.154E-03
RMM:   7    -0.645391039628E+03   -0.18053E-05   -0.26528E-06  2020   0.131E-03    0.116E-03
RMM:   8    -0.645391040563E+03   -0.93486E-06   -0.16671E-06  1459   0.888E-04
  10 F= -.64539104E+03 E0= -.64533214E+03  d E =-.546908E-03
 BRION: g(F)=  0.600E-03 g(S)=  0.000E+00 retain N=  2 mean eig= 2.21
 eig:   2.209  2.209
 bond charge predicted
       N       E                     dE             d eps       ncg     rms          rms(c)
DAV:   1    -0.645391515600E+03   -0.47597E-03   -0.57619E-01  3612   0.738E-01    0.104E-01
RMM:   2    -0.645392711627E+03   -0.11960E-02   -0.12947E-02  3537   0.154E-01    0.415E-02
RMM:   3    -0.645392894454E+03   -0.18283E-03   -0.16268E-03  4072   0.600E-02    0.286E-02
RMM:   4    -0.645392943595E+03   -0.49141E-04   -0.24987E-04  4393   0.227E-02    0.198E-02
RMM:   5    -0.645392988440E+03   -0.44845E-04   -0.11828E-04  3472   0.104E-02    0.139E-02
RMM:   6    -0.645393006297E+03   -0.17857E-04   -0.57177E-05  3287   0.614E-03    0.580E-03
RMM:   7    -0.645393016135E+03   -0.98378E-05   -0.33898E-05  2294   0.350E-03    0.421E-03
RMM:   8    -0.645393028185E+03   -0.12050E-04   -0.23426E-05  2250   0.280E-03    0.436E-03
RMM:   9    -0.645393041540E+03   -0.13355E-04   -0.14339E-05  2229   0.235E-03    0.444E-03
RMM:  10    -0.645393054948E+03   -0.13408E-04   -0.11479E-05  2242   0.222E-03    0.148E-03
RMM:  11    -0.645393061186E+03   -0.62381E-05   -0.56676E-06  2029   0.144E-03    0.145E-03
RMM:  12    -0.645393066594E+03   -0.54087E-05   -0.38127E-06  1528   0.113E-03    0.680E-04
RMM:  13    -0.645393071352E+03   -0.47574E-05   -0.26347E-06  1433   0.101E-03    0.478E-04
RMM:  14    -0.645393073399E+03   -0.20473E-05   -0.16470E-06  1442   0.872E-04    0.371E-04
RMM:  15    -0.645393074797E+03   -0.13976E-05   -0.12864E-06  1579   0.877E-04    0.469E-04
RMM:  16    -0.645393075129E+03   -0.33216E-06   -0.63967E-07   924   0.619E-04
  11 F= -.64539308E+03 E0= -.64533412E+03  d E =-.203457E-02
 BRION: g(F)=  0.417E-03 g(S)=  0.000E+00 retain N=  2 mean eig= 4.14
 eig:   1.843  6.427
 bond charge predicted
       N       E                     dE             d eps       ncg     rms          rms(c)
DAV:   1    -0.645393453941E+03   -0.37914E-03   -0.47887E-01  3588   0.615E-01    0.942E-02
RMM:   2    -0.645394372562E+03   -0.91862E-03   -0.10067E-02  3540   0.127E-01    0.368E-02
RMM:   3    -0.645394519270E+03   -0.14671E-03   -0.12487E-03  4053   0.495E-02    0.255E-02
RMM:   4    -0.645394552373E+03   -0.33103E-04   -0.19543E-04  4481   0.190E-02    0.186E-02
RMM:   5    -0.645394593304E+03   -0.40931E-04   -0.10916E-04  3401   0.898E-03    0.137E-02
RMM:   6    -0.645394606737E+03   -0.13432E-04   -0.48360E-05  3091   0.538E-03    0.565E-03
RMM:   7    -0.645394614941E+03   -0.82043E-05   -0.29344E-05  2259   0.315E-03    0.346E-03
RMM:   8    -0.645394625067E+03   -0.10126E-04   -0.21125E-05  2230   0.265E-03    0.402E-03
RMM:   9    -0.645394634006E+03   -0.89388E-05   -0.11760E-05  2146   0.198E-03    0.412E-03
RMM:  10    -0.645394643572E+03   -0.95658E-05   -0.89963E-06  2130   0.181E-03    0.107E-03
RMM:  11    -0.645394649224E+03   -0.56520E-05   -0.49049E-06  1837   0.130E-03    0.103E-03
RMM:  12    -0.645394652245E+03   -0.30215E-05   -0.30898E-06  1369   0.101E-03    0.520E-04
RMM:  13    -0.645394655119E+03   -0.28741E-05   -0.21206E-06  1319   0.916E-04    0.480E-04
RMM:  14    -0.645394655928E+03   -0.80860E-06   -0.12578E-06  1122   0.751E-04
  12 F= -.64539466E+03 E0= -.64533568E+03  d E =-.158080E-02
 BRION: g(F)=  0.386E-03 g(S)=  0.000E+00
 BRIONS problems: POTIM should be increased
 retain N=  1 mean eig=10.29
 eig:  10.290
 bond charge predicted
       N       E                     dE             d eps       ncg     rms          rms(c)
DAV:   1    -0.645395104724E+03   -0.44960E-03   -0.12316E-01  3544   0.299E-01    0.481E-02
RMM:   2    -0.645395339634E+03   -0.23491E-03   -0.25702E-03  3539   0.613E-02    0.184E-02
RMM:   3    -0.645395377167E+03   -0.37532E-04   -0.30636E-04  4030   0.236E-02    0.127E-02
RMM:   4    -0.645395387486E+03   -0.10320E-04   -0.53099E-05  3854   0.924E-03    0.948E-03
RMM:   5    -0.645395400398E+03   -0.12912E-04   -0.28674E-05  2620   0.450E-03    0.725E-03
RMM:   6    -0.645395405230E+03   -0.48315E-05   -0.13704E-05  2287   0.284E-03    0.267E-03
RMM:   7    -0.645395408314E+03   -0.30842E-05   -0.81977E-06  2088   0.174E-03    0.168E-03
RMM:   8    -0.645395411525E+03   -0.32107E-05   -0.56391E-06  1964   0.138E-03    0.198E-03
RMM:   9    -0.645395414603E+03   -0.30785E-05   -0.34565E-06  1787   0.112E-03    0.219E-03
RMM:  10    -0.645395417738E+03   -0.31349E-05   -0.26286E-06  1485   0.104E-03    0.502E-04
RMM:  11    -0.645395418673E+03   -0.93478E-06   -0.13377E-06  1178   0.772E-04
  13 F= -.64539542E+03 E0= -.64533646E+03  d E =-.762745E-03
 BRION: g(F)=  0.354E-03 g(S)=  0.000E+00
 BRIONS problems: POTIM should be increased
 retain N=  1 mean eig= 8.03
 eig:   8.033
 bond charge predicted
       N       E                     dE             d eps       ncg     rms          rms(c)
DAV:   1    -0.645395496247E+03   -0.78509E-04   -0.55730E-01  3600   0.659E-01    0.102E-01
RMM:   2    -0.645396573703E+03   -0.10775E-02   -0.11884E-02  3546   0.135E-01    0.392E-02
RMM:   3    -0.645396730627E+03   -0.15692E-03   -0.14097E-03  4071   0.516E-02    0.278E-02
RMM:   4    -0.645396764892E+03   -0.34265E-04   -0.20610E-04  4530   0.189E-02    0.203E-02
RMM:   5    -0.645396813323E+03   -0.48430E-04   -0.12700E-04  3425   0.949E-03    0.155E-02
RMM:   6    -0.645396829979E+03   -0.16657E-04   -0.57680E-05  3223   0.581E-03    0.589E-03
RMM:   7    -0.645396840346E+03   -0.10367E-04   -0.34598E-05  2305   0.336E-03    0.367E-03
RMM:   8    -0.645396850872E+03   -0.10526E-04   -0.23703E-05  2210   0.264E-03    0.398E-03
RMM:   9    -0.645396861881E+03   -0.11009E-04   -0.14436E-05  2173   0.218E-03    0.461E-03
RMM:  10    -0.645396875260E+03   -0.13379E-04   -0.10680E-05  2176   0.199E-03    0.118E-03
RMM:  11    -0.645396881533E+03   -0.62735E-05   -0.58377E-06  1974   0.141E-03    0.120E-03
RMM:  12    -0.645396885872E+03   -0.43392E-05   -0.37560E-06  1540   0.111E-03    0.724E-04
RMM:  13    -0.645396889617E+03   -0.37449E-05   -0.25799E-06  1391   0.983E-04    0.628E-04
RMM:  14    -0.645396890653E+03   -0.10359E-05   -0.15396E-06  1258   0.803E-04    0.356E-04
RMM:  15    -0.645396891307E+03   -0.65364E-06   -0.10476E-06  1279   0.755E-04
  14 F= -.64539689E+03 E0= -.64533795E+03  d E =-.147263E-02
 BRION: g(F)=  0.313E-03 g(S)=  0.000E+00 retain N=  1 mean eig= 6.87
 eig:   6.869
 bond charge predicted
       N       E                     dE             d eps       ncg     rms          rms(c)
DAV:   1    -0.645396982205E+03   -0.91552E-04   -0.11980E-02  3720   0.149E-01    0.167E-02
RMM:   2    -0.645397024656E+03   -0.42450E-04   -0.46030E-04  3455   0.311E-02    0.959E-03
RMM:   3    -0.645397026454E+03   -0.17978E-05   -0.50566E-05  3201   0.119E-02    0.673E-03
RMM:   4    -0.645397026910E+03   -0.45582E-06   -0.91223E-06  2442   0.494E-03
  15 F= -.64539703E+03 E0= -.64533809E+03  d E =-.135603E-03
 BRION: g(F)=  0.326E-03 g(S)=  0.000E+00 retain N=  1 mean eig= 0.39
 eig:   0.394
 bond charge predicted
       N       E                     dE             d eps       ncg     rms          rms(c)
DAV:   1    -0.645397183999E+03   -0.15754E-03   -0.14251E-02  3596   0.128E-01    0.171E-02
RMM:   2    -0.645397222156E+03   -0.38157E-04   -0.39585E-04  3525   0.270E-02    0.858E-03
RMM:   3    -0.645397227202E+03   -0.50460E-05   -0.46580E-05  3453   0.105E-02    0.856E-03
RMM:   4    -0.645397227553E+03   -0.35104E-06   -0.88915E-06  2518   0.441E-03
  16 F= -.64539723E+03 E0= -.64533829E+03  d E =-.200644E-03
 BRION: g(F)=  0.280E-03 g(S)=  0.000E+00 retain N=  1 mean eig= 0.46
 eig:   0.463
 bond charge predicted
       N       E                     dE             d eps       ncg     rms          rms(c)
DAV:   1    -0.645397412646E+03   -0.18544E-03   -0.23731E-02  3676   0.131E-01    0.202E-02
RMM:   2    -0.645397463046E+03   -0.50400E-04   -0.50149E-04  3477   0.258E-02    0.803E-03
RMM:   3    -0.645397473389E+03   -0.10343E-04   -0.57088E-05  3432   0.977E-03    0.681E-03
RMM:   4    -0.645397476563E+03   -0.31748E-05   -0.11956E-05  2512   0.409E-03    0.551E-03
RMM:   5    -0.645397480391E+03   -0.38279E-05   -0.56574E-06  2090   0.209E-03    0.293E-03
RMM:   6    -0.645397484702E+03   -0.43109E-05   -0.40218E-06  2050   0.161E-03    0.134E-03
RMM:   7    -0.645397486092E+03   -0.13899E-05   -0.19853E-06  1707   0.101E-03    0.100E-03
RMM:   8    -0.645397487193E+03   -0.11014E-05   -0.13063E-06  1161   0.764E-04    0.828E-04
RMM:   9    -0.645397489206E+03   -0.20122E-05   -0.12154E-06  1513   0.832E-04    0.132E-03
RMM:  10    -0.645397489920E+03   -0.71395E-06   -0.56118E-07   905   0.622E-04
  17 F= -.64539749E+03 E0= -.64533856E+03  d E =-.262366E-03
 BRION: g(F)=  0.265E-03 g(S)=  0.000E+00
 BRIONS problems: POTIM should be increased
 retain N=  1 mean eig=11.36
 eig:  11.362
 bond charge predicted
       N       E                     dE             d eps       ncg     rms          rms(c)
DAV:   1    -0.645394102622E+03    0.33866E-02   -0.25080E+00  3566   0.142E+00    0.210E-01
RMM:   2    -0.645398822266E+03   -0.47196E-02   -0.52329E-02  3534   0.276E-01    0.787E-02
RMM:   3    -0.645399425815E+03   -0.60355E-03   -0.59621E-03  4062   0.103E-01    0.559E-02
RMM:   4    -0.645399530316E+03   -0.10450E-03   -0.82620E-04  4738   0.377E-02    0.419E-02
RMM:   5    -0.645399668168E+03   -0.13785E-03   -0.50750E-04  3730   0.185E-02    0.303E-02
RMM:   6    -0.645399718349E+03   -0.50180E-04   -0.22277E-04  3949   0.112E-02    0.123E-02
RMM:   7    -0.645399749250E+03   -0.30901E-04   -0.13246E-04  3324   0.605E-03    0.764E-03
RMM:   8    -0.645399776905E+03   -0.27655E-04   -0.93288E-05  3061   0.480E-03    0.746E-03
RMM:   9    -0.645399807231E+03   -0.30326E-04   -0.56000E-05  2609   0.392E-03    0.909E-03
RMM:  10    -0.645399844131E+03   -0.36900E-04   -0.39681E-05  2616   0.363E-03    0.257E-03
RMM:  11    -0.645399864125E+03   -0.19994E-04   -0.22464E-05  2376   0.266E-03    0.258E-03
RMM:  12    -0.645399876368E+03   -0.12243E-04   -0.13966E-05  2149   0.193E-03    0.171E-03
RMM:  13    -0.645399888889E+03   -0.12521E-04   -0.94928E-06  1943   0.168E-03    0.122E-03
RMM:  14    -0.645399894605E+03   -0.57165E-05   -0.59968E-06  1976   0.139E-03    0.734E-04
RMM:  15    -0.645399898463E+03   -0.38576E-05   -0.40741E-06  1887   0.125E-03    0.603E-04
RMM:  16    -0.645399899613E+03   -0.11503E-05   -0.24654E-06  1335   0.925E-04    0.513E-04
RMM:  17    -0.645399899968E+03   -0.35506E-06   -0.15493E-06  1286   0.798E-04
  18 F= -.64539990E+03 E0= -.64534102E+03  d E =-.241005E-02
 BRION: g(F)=  0.228E-03 g(S)=  0.000E+00
 BRIONS problems: POTIM should be increased
 retain N=  1 mean eig=11.00
 eig:  11.002
 bond charge predicted
       N       E                     dE             d eps       ncg     rms          rms(c)
DAV:   1    -0.645399730319E+03    0.16929E-03   -0.12345E-02  3808   0.147E-01    0.170E-02
RMM:   2    -0.645399766749E+03   -0.36430E-04   -0.40565E-04  3492   0.306E-02    0.862E-03
RMM:   3    -0.645399769166E+03   -0.24174E-05   -0.45556E-05  3435   0.117E-02    0.590E-03
RMM:   4    -0.645399769528E+03   -0.36220E-06   -0.68693E-06  2413   0.456E-03
  19 F= -.64539977E+03 E0= -.64534090E+03  d E =0.130440E-03
 BRION: g(F)=  0.213E-03 g(S)=  0.000E+00 retain N=  1 mean eig= 0.58
 eig:   0.577
 bond charge predicted
       N       E                     dE             d eps       ncg     rms          rms(c)
DAV:   1    -0.645399939767E+03   -0.17060E-03   -0.34785E-02  3656   0.168E-01    0.250E-02
RMM:   2    -0.645400009835E+03   -0.70068E-04   -0.76447E-04  3517   0.340E-02    0.103E-02
RMM:   3    -0.645400018275E+03   -0.84401E-05   -0.85002E-05  3647   0.128E-02    0.101E-02
RMM:   4    -0.645400018552E+03   -0.27644E-06   -0.13373E-05  2749   0.518E-03    0.625E-03
RMM:   5    -0.645400019285E+03   -0.73298E-06   -0.53751E-06  2120   0.245E-03
  20 F= -.64540002E+03 E0= -.64534114E+03  d E =-.249757E-03
 BRION: g(F)=  0.227E-03 g(S)=  0.000E+00 retain N=  1 mean eig= 0.39
 eig:   0.389
 bond charge predicted
       N       E                     dE             d eps       ncg     rms          rms(c)
DAV:   1    -0.645400046195E+03   -0.27643E-04   -0.72445E-04  3720   0.249E-02    0.461E-03
RMM:   2    -0.645400048534E+03   -0.23394E-05   -0.22294E-05  2463   0.570E-03    0.281E-03
RMM:   3    -0.645400049193E+03   -0.65896E-06   -0.36717E-06  2101   0.240E-03
  21 F= -.64540005E+03 E0= -.64534117E+03  d E =-.299085E-04
 BRION: g(F)=  0.211E-03 g(S)=  0.000E+00 retain N=  2 mean eig= 2.31
 eig:   3.027  1.592
 bond charge predicted
       N       E                     dE             d eps       ncg     rms          rms(c)
DAV:   1    -0.645399441286E+03    0.60725E-03   -0.85066E-02  3648   0.295E-01    0.410E-02
RMM:   2    -0.645399617641E+03   -0.17635E-03   -0.19816E-03  3531   0.595E-02    0.161E-02
RMM:   3    -0.645399636779E+03   -0.19138E-04   -0.22228E-04  4009   0.227E-02    0.112E-02
RMM:   4    -0.645399639902E+03   -0.31234E-05   -0.32999E-05  3496   0.856E-03    0.857E-03
RMM:   5    -0.645399643433E+03   -0.35302E-05   -0.14323E-05  2550   0.398E-03    0.735E-03
RMM:   6    -0.645399644562E+03   -0.11295E-05   -0.71757E-06  2216   0.262E-03    0.231E-03
RMM:   7    -0.645399645393E+03   -0.83102E-06   -0.37057E-06  2050   0.148E-03
  22 F= -.64539965E+03 E0= -.64534076E+03  d E =0.403800E-03
 BRION: g(F)=  0.177E-03 g(S)=  0.000E+00 retain N=  2 mean eig= 1.80
 eig:   3.390  0.202
 bond charge predicted
       N       E                     dE             d eps       ncg     rms          rms(c)
DAV:   1    -0.645399419177E+03    0.22538E-03   -0.12546E-02  3520   0.157E-01    0.188E-02
RMM:   2    -0.645399454965E+03   -0.35787E-04   -0.41037E-04  3515   0.337E-02    0.852E-03
RMM:   3    -0.645399460054E+03   -0.50890E-05   -0.56606E-05  3863   0.137E-02    0.675E-03
RMM:   4    -0.645399461570E+03   -0.15167E-05   -0.11043E-05  3021   0.555E-03    0.546E-03
RMM:   5    -0.645399462742E+03   -0.11719E-05   -0.33314E-06  2181   0.262E-03    0.418E-03
RMM:   6    -0.645399464222E+03   -0.14795E-05   -0.24312E-06  2105   0.205E-03    0.144E-03
RMM:   7    -0.645399464583E+03   -0.36183E-06   -0.91576E-07  2013   0.112E-03
  23 F= -.64539946E+03 E0= -.64534056E+03  d E =0.180810E-03
 BRION: g(F)=  0.220E-03 g(S)=  0.000E+00 retain N=  3 mean eig= 3.73
 eig:   0.201  5.491  5.491
 bond charge predicted
       N       E                     dE             d eps       ncg     rms          rms(c)
DAV:   1    -0.645399521765E+03   -0.57543E-04   -0.27275E-02  3516   0.246E-01    0.292E-02
RMM:   2    -0.645399599497E+03   -0.77732E-04   -0.91409E-04  3529   0.538E-02    0.141E-02
RMM:   3    -0.645399608108E+03   -0.86115E-05   -0.13668E-04  3967   0.221E-02    0.995E-03
RMM:   4    -0.645399609966E+03   -0.18574E-05   -0.24989E-05  3903   0.885E-03    0.680E-03
RMM:   5    -0.645399611230E+03   -0.12640E-05   -0.64195E-06  2771   0.416E-03    0.649E-03
RMM:   6    -0.645399610806E+03    0.42338E-06   -0.25248E-06  2187   0.253E-03
  24 F= -.64539961E+03 E0= -.64534073E+03  d E =-.146223E-03
 BRION: g(F)=  0.204E-03 g(S)=  0.000E+00 retain N=  1 mean eig= 6.69
 eig:   6.691
 bond charge predicted
       N       E                     dE             d eps       ncg     rms          rms(c)
DAV:   1    -0.645399746995E+03   -0.13577E-03   -0.22014E-02  3718   0.121E-01    0.194E-02
RMM:   2    -0.645399789334E+03   -0.42338E-04   -0.45896E-04  3416   0.245E-02    0.785E-03
RMM:   3    -0.645399794737E+03   -0.54037E-05   -0.51275E-05  3086   0.900E-03    0.543E-03
RMM:   4    -0.645399796151E+03   -0.14139E-05   -0.77317E-06  2355   0.360E-03    0.522E-03
RMM:   5    -0.645399796642E+03   -0.49125E-06   -0.35209E-06  2074   0.182E-03
  25 F= -.64539980E+03 E0= -.64534091E+03  d E =-.185836E-03
 BRION: g(F)=  0.232E-03 g(S)=  0.000E+00 retain N=  2 mean eig= 3.49
 eig:   6.655  0.331
 bond charge predicted
       N       E                     dE             d eps       ncg     rms          rms(c)
DAV:   1    -0.645399801374E+03   -0.52233E-05   -0.96975E-06  2968   0.341E-03    0.109E-03
RMM:   2    -0.645399801773E+03   -0.39805E-06   -0.10964E-06  1798   0.118E-03
  26 F= -.64539980E+03 E0= -.64534092E+03  d E =-.513006E-05
 BRION: g(F)=  0.214E-03 g(S)=  0.000E+00 retain N=  3 mean eig= 3.19
 eig:   6.688  1.437  1.437
 bond charge predicted
       N       E                     dE             d eps       ncg     rms          rms(c)
DAV:   1    -0.645399892426E+03   -0.91051E-04   -0.66295E-03  3524   0.108E-01    0.137E-02
RMM:   2    -0.645399909959E+03   -0.17533E-04   -0.19976E-04  3488   0.233E-02    0.670E-03
RMM:   3    -0.645399912017E+03   -0.20582E-05   -0.26573E-05  3526   0.919E-03    0.479E-03
RMM:   4    -0.645399912818E+03   -0.80111E-06   -0.49776E-06  2433   0.379E-03
  27 F= -.64539991E+03 E0= -.64534104E+03  d E =-.111046E-03
 BRION: g(F)=  0.199E-03 g(S)=  0.000E+00 retain N=  4 mean eig= 4.79
 eig:   7.292  7.292  2.296  2.296
 bond charge predicted
       N       E                     dE             d eps       ncg     rms          rms(c)
DAV:   1    -0.645399873292E+03    0.38725E-04   -0.32603E-01  3616   0.521E-01    0.773E-02
RMM:   2    -0.645400520012E+03   -0.64672E-03   -0.70008E-03  3547   0.102E-01    0.299E-02
RMM:   3    -0.645400612132E+03   -0.92121E-04   -0.79494E-04  4057   0.386E-02    0.249E-02
RMM:   4    -0.645400628471E+03   -0.16339E-04   -0.12023E-04  4286   0.146E-02    0.200E-02
RMM:   5    -0.645400641689E+03   -0.13218E-04   -0.53007E-05  3295   0.648E-03    0.125E-02
RMM:   6    -0.645400664118E+03   -0.22429E-04   -0.44530E-05  2928   0.524E-03    0.506E-03
RMM:   7    -0.645400670879E+03   -0.67611E-05   -0.18539E-05  2276   0.276E-03    0.352E-03
RMM:   8    -0.645400675188E+03   -0.43089E-05   -0.11729E-05  2101   0.176E-03    0.244E-03
RMM:   9    -0.645400683701E+03   -0.85129E-05   -0.10477E-05  2134   0.199E-03    0.362E-03
RMM:  10    -0.645400689887E+03   -0.61857E-05   -0.53082E-06  1932   0.136E-03    0.187E-03
RMM:  11    -0.645400692216E+03   -0.23293E-05   -0.31385E-06  1449   0.945E-04    0.129E-03
RMM:  12    -0.645400696654E+03   -0.44376E-05   -0.25494E-06  1876   0.110E-03    0.425E-04
RMM:  13    -0.645400697022E+03   -0.36850E-06   -0.12139E-06   982   0.663E-04
  28 F= -.64540070E+03 E0= -.64534184E+03  d E =-.784204E-03
 BRION: g(F)=  0.193E-03 g(S)=  0.000E+00
 BRIONS problems: POTIM should be increased
 retain N=  1 mean eig=12.56
 eig:  12.563
 bond charge predicted
       N       E                     dE             d eps       ncg     rms          rms(c)
DAV:   1    -0.645400813018E+03   -0.11636E-03   -0.21751E-02  3524   0.109E-01    0.186E-02
RMM:   2    -0.645400854146E+03   -0.41128E-04   -0.43372E-04  3340   0.211E-02    0.663E-03
RMM:   3    -0.645400861514E+03   -0.73676E-05   -0.48783E-05  2825   0.755E-03    0.469E-03
RMM:   4    -0.645400864379E+03   -0.28655E-05   -0.80491E-06  2181   0.306E-03    0.292E-03
RMM:   5    -0.645400866580E+03   -0.22007E-05   -0.45833E-06  2067   0.168E-03    0.190E-03
RMM:   6    -0.645400867597E+03   -0.10168E-05   -0.25457E-06  1748   0.109E-03    0.809E-04
RMM:   7    -0.645400868152E+03   -0.55498E-06   -0.15413E-06  1171   0.782E-04
  29 F= -.64540087E+03 E0= -.64534201E+03  d E =-.171130E-03
 BRION: g(F)=  0.188E-03 g(S)=  0.000E+00 retain N=  1 mean eig= 1.34
 eig:   1.343
 bond charge predicted
       N       E                     dE             d eps       ncg     rms          rms(c)
DAV:   1    -0.645400959088E+03   -0.91491E-04   -0.13226E-02  3534   0.922E-02    0.143E-02
RMM:   2    -0.645400987443E+03   -0.28355E-04   -0.28110E-04  3219   0.182E-02    0.506E-03
RMM:   3    -0.645400993230E+03   -0.57872E-05   -0.31974E-05  2662   0.673E-03    0.401E-03
RMM:   4    -0.645400995549E+03   -0.23191E-05   -0.53959E-06  2183   0.273E-03    0.339E-03
RMM:   5    -0.645400997582E+03   -0.20330E-05   -0.32334E-06  1987   0.153E-03    0.162E-03
RMM:   6    -0.645400999036E+03   -0.14545E-05   -0.18672E-06  1617   0.104E-03    0.807E-04
RMM:   7    -0.645400999532E+03   -0.49515E-06   -0.10834E-06  1150   0.748E-04
  30 F= -.64540100E+03 E0= -.64534214E+03  d E =-.131380E-03
 BRION: g(F)=  0.184E-03 g(S)=  0.000E+00 retain N=  2 mean eig= 1.40
 eig:   1.398  1.398
 bond charge predicted
       N       E                     dE             d eps       ncg     rms          rms(c)
DAV:   1    -0.645400254315E+03    0.74472E-03   -0.75862E-01  3604   0.629E-01    0.110E-01
RMM:   2    -0.645401582812E+03   -0.13285E-02   -0.14370E-02  3528   0.117E-01    0.393E-02
RMM:   3    -0.645401787990E+03   -0.20518E-03   -0.15684E-03  4331   0.413E-02    0.267E-02
RMM:   4    -0.645401839907E+03   -0.51917E-04   -0.21737E-04  4348   0.145E-02    0.153E-02
RMM:   5    -0.645401895447E+03   -0.55539E-04   -0.14357E-04  3317   0.758E-03    0.940E-03
RMM:   6    -0.645401913819E+03   -0.18372E-04   -0.72416E-05  2751   0.447E-03    0.497E-03
RMM:   7    -0.645401923982E+03   -0.10163E-04   -0.45169E-05  2145   0.281E-03    0.404E-03
RMM:   8    -0.645401932416E+03   -0.84341E-05   -0.30453E-05  2026   0.226E-03    0.404E-03
RMM:   9    -0.645401944017E+03   -0.11601E-04   -0.18271E-05  1922   0.187E-03    0.381E-03
RMM:  10    -0.645401977224E+03   -0.33207E-04   -0.19054E-05  2463   0.287E-03    0.470E-03
RMM:  11    -0.645401981275E+03   -0.40511E-05   -0.79442E-06  1647   0.143E-03    0.278E-03
RMM:  12    -0.645401982862E+03   -0.15869E-05   -0.50759E-06  1309   0.109E-03    0.159E-03
RMM:  13    -0.645401992538E+03   -0.96757E-05   -0.64676E-06  1991   0.169E-03    0.212E-03
RMM:  14    -0.645401993208E+03   -0.67027E-06   -0.23147E-06  1319   0.930E-04
  31 F= -.64540199E+03 E0= -.64534312E+03  d E =-.993677E-03
 BRION: g(F)=  0.192E-03 g(S)=  0.000E+00 retain N=  1 mean eig= 6.03
 eig:   6.031
 bond charge predicted
       N       E                     dE             d eps       ncg     rms          rms(c)
DAV:   1    -0.645399660179E+03    0.23324E-02   -0.65430E-01  3690   0.584E-01    0.104E-01
RMM:   2    -0.645400791144E+03   -0.11310E-02   -0.12389E-02  3524   0.109E-01    0.378E-02
RMM:   3    -0.645400951334E+03   -0.16019E-03   -0.13327E-03  4314   0.386E-02    0.247E-02
RMM:   4    -0.645400984665E+03   -0.33330E-04   -0.17534E-04  4165   0.134E-02    0.141E-02
RMM:   5    -0.645401021009E+03   -0.36345E-04   -0.11581E-04  3130   0.677E-03    0.873E-03
RMM:   6    -0.645401032793E+03   -0.11783E-04   -0.56956E-05  2549   0.396E-03    0.453E-03
RMM:   7    -0.645401039381E+03   -0.65882E-05   -0.35760E-05  2097   0.246E-03    0.366E-03
RMM:   8    -0.645401044511E+03   -0.51307E-05   -0.23970E-05  1913   0.196E-03    0.332E-03
RMM:   9    -0.645401052220E+03   -0.77089E-05   -0.14278E-05  1845   0.163E-03    0.283E-03
RMM:  10    -0.645401067964E+03   -0.15744E-04   -0.12359E-05  2095   0.215E-03    0.395E-03
RMM:  11    -0.645401069369E+03   -0.14047E-05   -0.58940E-06  1417   0.115E-03    0.208E-03
RMM:  12    -0.645401070185E+03   -0.81616E-06   -0.37792E-06  1078   0.911E-04
  32 F= -.64540107E+03 E0= -.64534221E+03  d E =0.923023E-03
 BRION: g(F)=  0.130E-03 g(S)=  0.000E+00
 BRIONS problems: POTIM should be increased
 retain N=  1 mean eig=14.14
 eig:  14.137
 bond charge predicted
       N       E                     dE             d eps       ncg     rms          rms(c)
DAV:   1    -0.645397978461E+03    0.30909E-02   -0.91203E-01  3508   0.662E-01    0.119E-01
RMM:   2    -0.645399544430E+03   -0.15660E-02   -0.17150E-02  3523   0.124E-01    0.430E-02
RMM:   3    -0.645399768158E+03   -0.22373E-03   -0.18827E-03  4349   0.434E-02    0.293E-02
RMM:   4    -0.645399815028E+03   -0.46870E-04   -0.26369E-04  4406   0.152E-02    0.166E-02
RMM:   5    -0.645399864487E+03   -0.49459E-04   -0.17303E-04  3380   0.787E-03    0.108E-02
RMM:   6    -0.645399883222E+03   -0.18734E-04   -0.89783E-05  2784   0.465E-03    0.525E-03
RMM:   7    -0.645399894323E+03   -0.11102E-04   -0.56674E-05  2155   0.300E-03    0.431E-03
RMM:   8    -0.645399902863E+03   -0.85396E-05   -0.37788E-05  2031   0.241E-03    0.462E-03
RMM:   9    -0.645399912203E+03   -0.93396E-05   -0.22944E-05  1913   0.196E-03    0.458E-03
RMM:  10    -0.645399938446E+03   -0.26244E-04   -0.23365E-05  2390   0.301E-03    0.596E-03
RMM:  11    -0.645399941242E+03   -0.27953E-05   -0.98090E-06  1588   0.146E-03    0.349E-03
RMM:  12    -0.645399942371E+03   -0.11298E-05   -0.63157E-06  1281   0.111E-03    0.216E-03
RMM:  13    -0.645399946456E+03   -0.40843E-05   -0.57896E-06  1761   0.140E-03    0.191E-03
RMM:  14    -0.645399947718E+03   -0.12618E-05   -0.28317E-06  1283   0.948E-04    0.197E-03
RMM:  15    -0.645399948095E+03   -0.37757E-06   -0.18399E-06   877   0.754E-04
  33 F= -.64539995E+03 E0= -.64534110E+03  d E =0.112209E-02
 BRION: g(F)=  0.204E-03 g(S)=  0.000E+00 retain N=  1 mean eig= 2.67
 eig:   2.673
 bond charge predicted
       N       E                     dE             d eps       ncg     rms          rms(c)
DAV:   1    -0.645398911241E+03    0.10365E-02   -0.10081E+00  3692   0.706E-01    0.126E-01
RMM:   2    -0.645400636709E+03   -0.17255E-02   -0.18774E-02  3525   0.131E-01    0.463E-02
RMM:   3    -0.645400904665E+03   -0.26796E-03   -0.21041E-03  4278   0.464E-02    0.303E-02
RMM:   4    -0.645400962442E+03   -0.57777E-04   -0.25498E-04  4407   0.160E-02    0.172E-02
RMM:   5    -0.645401025559E+03   -0.63117E-04   -0.17128E-04  3386   0.821E-03    0.101E-02
RMM:   6    -0.645401046955E+03   -0.21396E-04   -0.82721E-05  2870   0.475E-03    0.570E-03
RMM:   7    -0.645401058376E+03   -0.11421E-04   -0.51742E-05  2174   0.295E-03    0.424E-03
RMM:   8    -0.645401068835E+03   -0.10460E-04   -0.36115E-05  2059   0.247E-03    0.422E-03
RMM:   9    -0.645401084595E+03   -0.15760E-04   -0.20702E-05  1989   0.200E-03    0.338E-03
RMM:  10    -0.645401112959E+03   -0.28364E-04   -0.19297E-05  2404   0.269E-03    0.413E-03
RMM:  11    -0.645401118964E+03   -0.60055E-05   -0.92171E-06  1634   0.146E-03    0.235E-03
RMM:  12    -0.645401121031E+03   -0.20662E-05   -0.56024E-06  1320   0.109E-03    0.137E-03
RMM:  13    -0.645401129415E+03   -0.83849E-05   -0.57641E-06  1894   0.152E-03    0.129E-03
RMM:  14    -0.645401130263E+03   -0.84804E-06   -0.23959E-06  1261   0.897E-04
  34 F= -.64540113E+03 E0= -.64534227E+03  d E =-.118217E-02
 BRION: g(F)=  0.187E-03 g(S)=  0.000E+00 retain N=  1 mean eig= 5.97
 eig:   5.973
 bond charge predicted
       N       E                     dE             d eps       ncg     rms          rms(c)
DAV:   1    -0.645401025673E+03    0.10374E-03   -0.71049E-03  3830   0.884E-02    0.124E-02
RMM:   2    -0.645401042517E+03   -0.16844E-04   -0.18051E-04  3100   0.178E-02    0.611E-03
RMM:   3    -0.645401044115E+03   -0.15978E-05   -0.18771E-05  2484   0.661E-03    0.342E-03
RMM:   4    -0.645401044571E+03   -0.45605E-06   -0.27223E-06  2160   0.282E-03
  35 F= -.64540104E+03 E0= -.64534218E+03  d E =0.856927E-04
 BRION: g(F)=  0.171E-03 g(S)=  0.000E+00 retain N=  1 mean eig= 0.06
 eig:   0.065
 bond charge predicted
       N       E                     dE             d eps       ncg     rms          rms(c)
DAV:   1    -0.645401161215E+03   -0.11710E-03   -0.29106E-02  3652   0.153E-01    0.227E-02
RMM:   2    -0.645401220932E+03   -0.59717E-04   -0.64830E-04  3420   0.305E-02    0.930E-03
RMM:   3    -0.645401228110E+03   -0.71783E-05   -0.71285E-05  3290   0.114E-02    0.799E-03
RMM:   4    -0.645401228782E+03   -0.67200E-06   -0.10156E-05  2628   0.456E-03    0.597E-03
RMM:   5    -0.645401229544E+03   -0.76228E-06   -0.51047E-06  2111   0.225E-03
  36 F= -.64540123E+03 E0= -.64534237E+03  d E =-.184974E-03
 BRION: g(F)=  0.199E-03 g(S)=  0.000E+00 retain N=  1 mean eig= 0.38
 eig:   0.379
 bond charge predicted
       N       E                     dE             d eps       ncg     rms          rms(c)
DAV:   1    -0.645401255076E+03   -0.26294E-04   -0.48662E-04  3496   0.185E-02    0.378E-03
RMM:   2    -0.645401256672E+03   -0.15962E-05   -0.13814E-05  2143   0.356E-03    0.199E-03
RMM:   3    -0.645401257195E+03   -0.52224E-06   -0.25262E-06  1931   0.157E-03
  37 F= -.64540126E+03 E0= -.64534240E+03  d E =-.276502E-04
 BRION: g(F)=  0.179E-03 g(S)=  0.000E+00 retain N=  2 mean eig= 2.14
 eig:   0.476  3.799
 bond charge predicted
       N       E                     dE             d eps       ncg     rms          rms(c)
DAV:   1    -0.645401375638E+03   -0.11897E-03   -0.62187E-02  3612   0.214E-01    0.323E-02
RMM:   2    -0.645401503629E+03   -0.12799E-03   -0.13361E-03  3496   0.419E-02    0.123E-02
RMM:   3    -0.645401522698E+03   -0.19069E-04   -0.14682E-04  3758   0.155E-02    0.869E-03
RMM:   4    -0.645401528889E+03   -0.61909E-05   -0.22101E-05  2718   0.564E-03    0.608E-03
RMM:   5    -0.645401536343E+03   -0.74542E-05   -0.13654E-05  2236   0.301E-03    0.348E-03
RMM:   6    -0.645401538948E+03   -0.26054E-05   -0.65495E-06  2100   0.183E-03    0.165E-03
RMM:   7    -0.645401540682E+03   -0.17338E-05   -0.40387E-06  1764   0.118E-03    0.118E-03
RMM:   8    -0.645401542591E+03   -0.19092E-05   -0.29081E-06  1401   0.952E-04    0.132E-03
RMM:   9    -0.645401544161E+03   -0.15699E-05   -0.16469E-06  1299   0.796E-04    0.120E-03
RMM:  10    -0.645401545946E+03   -0.17844E-05   -0.14364E-06  1440   0.863E-04    0.699E-04
RMM:  11    -0.645401546302E+03   -0.35615E-06   -0.66807E-07   835   0.593E-04
  38 F= -.64540155E+03 E0= -.64534268E+03  d E =-.289107E-03
 BRION: g(F)=  0.182E-03 g(S)=  0.000E+00 retain N=  2 mean eig= 1.27
 eig:   2.000  0.531
 bond charge predicted
       N       E                     dE             d eps       ncg     rms          rms(c)
DAV:   1    -0.645401667165E+03   -0.12122E-03   -0.98683E-02  3562   0.236E-01    0.405E-02
RMM:   2    -0.645401847908E+03   -0.18074E-03   -0.19326E-03  3481   0.441E-02    0.142E-02
RMM:   3    -0.645401877288E+03   -0.29380E-04   -0.21346E-04  3812   0.160E-02    0.988E-03
RMM:   4    -0.645401885348E+03   -0.80596E-05   -0.30479E-05  2870   0.572E-03    0.667E-03
RMM:   5    -0.645401895765E+03   -0.10418E-04   -0.21788E-05  2255   0.319E-03    0.382E-03
RMM:   6    -0.645401898735E+03   -0.29700E-05   -0.98834E-06  2101   0.189E-03    0.194E-03
RMM:   7    -0.645401900552E+03   -0.18167E-05   -0.62868E-06  1740   0.127E-03    0.147E-03
RMM:   8    -0.645401902172E+03   -0.16205E-05   -0.42550E-06  1342   0.999E-04    0.146E-03
RMM:   9    -0.645401904610E+03   -0.24375E-05   -0.27318E-06  1494   0.928E-04    0.174E-03
RMM:  10    -0.645401908167E+03   -0.35568E-05   -0.25488E-06  1617   0.105E-03    0.973E-04
RMM:  11    -0.645401908467E+03   -0.30076E-06   -0.10395E-06   838   0.637E-04
  39 F= -.64540191E+03 E0= -.64534304E+03  d E =-.362166E-03
 BRION: g(F)=  0.189E-03 g(S)=  0.000E+00 retain N=  2 mean eig= 2.43
 eig:   0.304  4.549
 bond charge predicted
       N       E                     dE             d eps       ncg     rms          rms(c)
DAV:   1    -0.645398162795E+03    0.37454E-02   -0.11438E+00  3638   0.809E-01    0.138E-01
RMM:   2    -0.645400186583E+03   -0.20238E-02   -0.22195E-02  3531   0.151E-01    0.500E-02
RMM:   3    -0.645400458960E+03   -0.27238E-03   -0.23744E-03  4184   0.549E-02    0.335E-02
RMM:   4    -0.645400509676E+03   -0.50716E-04   -0.32632E-04  4639   0.196E-02    0.227E-02
RMM:   5    -0.645400570682E+03   -0.61006E-04   -0.22202E-04  3500   0.967E-03    0.124E-02
RMM:   6    -0.645400591464E+03   -0.20782E-04   -0.98778E-05  3068   0.542E-03    0.629E-03
RMM:   7    -0.645400603894E+03   -0.12430E-04   -0.62868E-05  2214   0.326E-03    0.464E-03
RMM:   8    -0.645400615111E+03   -0.11217E-04   -0.44030E-05  2150   0.270E-03    0.460E-03
RMM:   9    -0.645400631978E+03   -0.16867E-04   -0.25487E-05  2158   0.227E-03    0.439E-03
RMM:  10    -0.645400651162E+03   -0.19184E-04   -0.20579E-05  2296   0.248E-03    0.217E-03
RMM:  11    -0.645400654858E+03   -0.36958E-05   -0.10161E-05  1620   0.137E-03    0.147E-03
RMM:  12    -0.645400657414E+03   -0.25555E-05   -0.66046E-06  1346   0.110E-03    0.133E-03
RMM:  13    -0.645400663156E+03   -0.57418E-05   -0.50772E-06  1808   0.135E-03    0.107E-03
RMM:  14    -0.645400663621E+03   -0.46544E-06   -0.26177E-06  1130   0.828E-04
  40 F= -.64540066E+03 E0= -.64534181E+03  d E =0.124485E-02
 BRION: g(F)=  0.144E-03 g(S)=  0.000E+00
 BRIONS problems: POTIM should be increased
 retain N=  1 mean eig=11.85
 eig:  11.849
 bond charge predicted
       N       E                     dE             d eps       ncg     rms          rms(c)
DAV:   1    -0.645394767993E+03    0.58952E-02   -0.19178E+00  3508   0.103E+00    0.177E-01
RMM:   2    -0.645398127538E+03   -0.33595E-02   -0.36969E-02  3530   0.192E-01    0.633E-02
RMM:   3    -0.645398585310E+03   -0.45777E-03   -0.40170E-03  4237   0.695E-02    0.428E-02
RMM:   4    -0.645398669331E+03   -0.84022E-04   -0.56114E-04  4822   0.246E-02    0.286E-02
RMM:   5    -0.645398767465E+03   -0.98134E-04   -0.37879E-04  3714   0.122E-02    0.155E-02
RMM:   6    -0.645398802709E+03   -0.35244E-04   -0.17368E-04  3550   0.684E-03    0.797E-03
RMM:   7    -0.645398823811E+03   -0.21101E-04   -0.11043E-04  2439   0.412E-03    0.610E-03
RMM:   8    -0.645398840535E+03   -0.16724E-04   -0.75263E-05  2259   0.334E-03    0.608E-03
RMM:   9    -0.645398864159E+03   -0.23625E-04   -0.45084E-05  2250   0.284E-03    0.647E-03
RMM:  10    -0.645398903351E+03   -0.39192E-04   -0.38398E-05  2615   0.353E-03    0.374E-03
RMM:  11    -0.645398909418E+03   -0.60665E-05   -0.17804E-05  1854   0.178E-03    0.226E-03
RMM:  12    -0.645398913190E+03   -0.37720E-05   -0.11666E-05  1546   0.137E-03    0.168E-03
RMM:  13    -0.645398924684E+03   -0.11495E-04   -0.97152E-06  2023   0.185E-03    0.147E-03
RMM:  14    -0.645398925489E+03   -0.80472E-06   -0.46935E-06  1374   0.105E-03
  41 F= -.64539893E+03 E0= -.64534008E+03  d E =0.173813E-02
 BRION: g(F)=  0.163E-03 g(S)=  0.000E+00
 BRIONS problems: POTIM should be increased
 retain N=  1 mean eig=13.33
 eig:  13.332
 bond charge predicted
       N       E                     dE             d eps       ncg     rms          rms(c)
DAV:   1    -0.645383541099E+03    0.15384E-01   -0.93557E+00  3540   0.226E+00    0.386E-01
RMM:   2    -0.645399321695E+03   -0.15781E-01   -0.17533E-01  3529   0.422E-01    0.139E-01
RMM:   3    -0.645401389437E+03   -0.20677E-02   -0.19421E-02  4231   0.153E-01    0.925E-02
RMM:   4    -0.645401670548E+03   -0.28111E-03   -0.23950E-03  4937   0.532E-02    0.626E-02
RMM:   5    -0.645402005376E+03   -0.33483E-03   -0.16406E-03  3959   0.263E-02    0.338E-02
RMM:   6    -0.645402141560E+03   -0.13618E-03   -0.70747E-04  4587   0.146E-02    0.188E-02
RMM:   7    -0.645402218557E+03   -0.76997E-04   -0.44713E-04  3899   0.839E-03    0.132E-02
RMM:   8    -0.645402275850E+03   -0.57293E-04   -0.30800E-04  3477   0.670E-03    0.120E-02
RMM:   9    -0.645402355265E+03   -0.79415E-04   -0.18013E-04  3109   0.550E-03    0.123E-02
RMM:  10    -0.645402485893E+03   -0.13063E-03   -0.14818E-04  3630   0.701E-03    0.721E-03
RMM:  11    -0.645402513636E+03   -0.27743E-04   -0.72903E-05  2515   0.349E-03    0.422E-03
RMM:  12    -0.645402527508E+03   -0.13872E-04   -0.46845E-05  2027   0.254E-03    0.325E-03
RMM:  13    -0.645402576263E+03   -0.48755E-04   -0.39157E-05  2749   0.363E-03    0.213E-03
RMM:  14    -0.645402582357E+03   -0.60933E-05   -0.19537E-05  1931   0.194E-03    0.118E-03
RMM:  15    -0.645402586093E+03   -0.37363E-05   -0.12654E-05  1642   0.149E-03    0.122E-03
RMM:  16    -0.645402591013E+03   -0.49204E-05   -0.86328E-06  1627   0.140E-03    0.895E-04
RMM:  17    -0.645402592541E+03   -0.15277E-05   -0.55349E-06  1360   0.111E-03    0.636E-04
RMM:  18    -0.645402593251E+03   -0.70978E-06   -0.35563E-06  1132   0.919E-04
  42 F= -.64540259E+03 E0= -.64534372E+03  d E =-.366776E-02
 BRION: g(F)=  0.199E-03 g(S)=  0.000E+00
 BRIONS problems: POTIM should be increased
 retain N=  1 mean eig=10.64
 eig:  10.636
 bond charge predicted
       N       E                     dE             d eps       ncg     rms          rms(c)
DAV:   1    -0.645382191115E+03    0.20401E-01   -0.83797E+00  3532   0.212E+00    0.367E-01
RMM:   2    -0.645396305271E+03   -0.14114E-01   -0.15688E-01  3528   0.394E-01    0.132E-01
RMM:   3    -0.645398070675E+03   -0.17654E-02   -0.16730E-02  4232   0.142E-01    0.872E-02
RMM:   4    -0.645398340968E+03   -0.27029E-03   -0.22582E-03  4936   0.505E-02    0.578E-02
RMM:   5    -0.645398633677E+03   -0.29271E-03   -0.14542E-03  4004   0.243E-02    0.305E-02
RMM:   6    -0.645398754666E+03   -0.12099E-03   -0.66382E-04  4497   0.136E-02    0.163E-02
RMM:   7    -0.645398825713E+03   -0.71048E-04   -0.41897E-04  3628   0.791E-03    0.123E-02
RMM:   8    -0.645398877732E+03   -0.52018E-04   -0.28298E-04  3143   0.620E-03    0.117E-02
RMM:   9    -0.645398947187E+03   -0.69455E-04   -0.16712E-04  3010   0.514E-03    0.113E-02
RMM:  10    -0.645399063247E+03   -0.11606E-03   -0.13386E-04  3491   0.650E-03    0.777E-03
RMM:  11    -0.645399084722E+03   -0.21475E-04   -0.67290E-05  2396   0.323E-03    0.430E-03
RMM:  12    -0.645399095884E+03   -0.11162E-04   -0.43258E-05  1974   0.239E-03    0.299E-03
RMM:  13    -0.645399135239E+03   -0.39355E-04   -0.35873E-05  2689   0.344E-03    0.207E-03
RMM:  14    -0.645399139377E+03   -0.41374E-05   -0.17336E-05  1809   0.176E-03    0.128E-03
RMM:  15    -0.645399141874E+03   -0.24976E-05   -0.11326E-05  1513   0.137E-03    0.133E-03
RMM:  16    -0.645399145093E+03   -0.32184E-05   -0.74070E-06  1594   0.129E-03    0.642E-04
RMM:  17    -0.645399146178E+03   -0.10857E-05   -0.46805E-06  1255   0.102E-03    0.466E-04
RMM:  18    -0.645399146728E+03   -0.54933E-06   -0.29301E-06   997   0.846E-04
  43 F= -.64539915E+03 E0= -.64534030E+03  d E =0.344652E-02
 BRION: g(F)=  0.161E-03 g(S)=  0.000E+00
 BRIONS problems: POTIM should be increased
 retain N=  1 mean eig=12.19
 eig:  12.186
 bond charge predicted
       N       E                     dE             d eps       ncg     rms          rms(c)
DAV:   1    -0.645398801386E+03    0.34479E-03   -0.41930E-02  3552   0.152E-01    0.263E-02
RMM:   2    -0.645398882188E+03   -0.80802E-04   -0.87188E-04  3417   0.300E-02    0.919E-03
RMM:   3    -0.645398894396E+03   -0.12208E-04   -0.97382E-05  3198   0.109E-02    0.651E-03
RMM:   4    -0.645398897497E+03   -0.31015E-05   -0.15966E-05  2422   0.407E-03    0.363E-03
RMM:   5    -0.645398900349E+03   -0.28514E-05   -0.95714E-06  2080   0.213E-03    0.179E-03
RMM:   6    -0.645398901441E+03   -0.10924E-05   -0.51664E-06  1855   0.133E-03    0.111E-03
RMM:   7    -0.645398902018E+03   -0.57685E-06   -0.31801E-06  1326   0.932E-04
  44 F= -.64539890E+03 E0= -.64534005E+03  d E =0.244710E-03
 BRION: g(F)=  0.171E-03 g(S)=  0.000E+00 retain N=  1 mean eig= 0.32
 eig:   0.317
 bond charge predicted
       N       E                     dE             d eps       ncg     rms          rms(c)
DAV:   1    -0.645399095245E+03   -0.19380E-03   -0.67221E-02  3714   0.193E-01    0.343E-02
RMM:   2    -0.645399211832E+03   -0.11659E-03   -0.12781E-03  3472   0.366E-02    0.129E-02
RMM:   3    -0.645399227553E+03   -0.15721E-04   -0.13749E-04  3573   0.132E-02    0.794E-03
RMM:   4    -0.645399230275E+03   -0.27218E-05   -0.15943E-05  2577   0.464E-03    0.526E-03
RMM:   5    -0.645399232724E+03   -0.24490E-05   -0.10525E-05  2120   0.245E-03    0.311E-03
RMM:   6    -0.645399233486E+03   -0.76277E-06   -0.43938E-06  2027   0.143E-03
  45 F= -.64539923E+03 E0= -.64534039E+03  d E =-.331468E-03
 BRION: g(F)=  0.229E-03 g(S)=  0.000E+00 retain N=  2 mean eig= 2.15
 eig:   1.146  3.149
 bond charge predicted
       N       E                     dE             d eps       ncg     rms          rms(c)
DAV:   1    -0.645397658957E+03    0.15738E-02   -0.36782E-01  3654   0.449E-01    0.773E-02
RMM:   2    -0.645398296957E+03   -0.63800E-03   -0.69485E-03  3522   0.844E-02    0.288E-02
RMM:   3    -0.645398387832E+03   -0.90874E-04   -0.76325E-04  4147   0.305E-02    0.188E-02
RMM:   4    -0.645398403607E+03   -0.15775E-04   -0.91661E-05  3921   0.106E-02    0.127E-02
RMM:   5    -0.645398423974E+03   -0.20366E-04   -0.65292E-05  2768   0.545E-03    0.767E-03
RMM:   6    -0.645398430183E+03   -0.62095E-05   -0.27488E-05  2328   0.317E-03    0.376E-03
RMM:   7    -0.645398433832E+03   -0.36492E-05   -0.17482E-05  2067   0.194E-03    0.257E-03
RMM:   8    -0.645398437373E+03   -0.35407E-05   -0.12550E-05  1928   0.160E-03    0.229E-03
RMM:   9    -0.645398442164E+03   -0.47911E-05   -0.71952E-06  1757   0.130E-03    0.244E-03
RMM:  10    -0.645398447175E+03   -0.50113E-05   -0.58041E-06  1742   0.135E-03    0.105E-03
RMM:  11    -0.645398448160E+03   -0.98452E-06   -0.28486E-06  1109   0.845E-04
  46 F= -.64539845E+03 E0= -.64533960E+03  d E =0.785327E-03
 BRION: g(F)=  0.165E-03 g(S)=  0.000E+00
 BRIONS problems: POTIM should be increased
 retain N=  1 mean eig=14.61
 eig:  14.606
 bond charge predicted
       N       E                     dE             d eps       ncg     rms          rms(c)
DAV:   1    -0.645390265069E+03    0.81821E-02   -0.28171E+00  3508   0.121E+00    0.212E-01
RMM:   2    -0.645395119940E+03   -0.48549E-02   -0.53612E-02  3533   0.227E-01    0.758E-02
RMM:   3    -0.645395807008E+03   -0.68707E-03   -0.60858E-03  4279   0.819E-02    0.516E-02
RMM:   4    -0.645395910252E+03   -0.10324E-03   -0.74580E-04  4861   0.281E-02    0.342E-02
RMM:   5    -0.645396042904E+03   -0.13265E-03   -0.54170E-04  3764   0.144E-02    0.200E-02
RMM:   6    -0.645396091086E+03   -0.48182E-04   -0.23582E-04  3875   0.807E-03    0.107E-02
RMM:   7    -0.645396118770E+03   -0.27684E-04   -0.15148E-04  2633   0.487E-03    0.750E-03
RMM:   8    -0.645396139362E+03   -0.20592E-04   -0.10323E-04  2377   0.390E-03    0.680E-03
RMM:   9    -0.645396168190E+03   -0.28828E-04   -0.62749E-05  2326   0.333E-03    0.794E-03
RMM:  10    -0.645396223764E+03   -0.55575E-04   -0.51819E-05  2823   0.418E-03    0.426E-03
RMM:  11    -0.645396232689E+03   -0.89245E-05   -0.24289E-05  2044   0.209E-03    0.271E-03
RMM:  12    -0.645396237615E+03   -0.49264E-05   -0.15926E-05  1660   0.157E-03    0.195E-03
RMM:  13    -0.645396252364E+03   -0.14749E-04   -0.13472E-05  2146   0.217E-03    0.157E-03
RMM:  14    -0.645396253693E+03   -0.13290E-05   -0.64068E-06  1496   0.121E-03    0.993E-04
RMM:  15    -0.645396254487E+03   -0.79374E-06   -0.42371E-06  1198   0.961E-04
  47 F= -.64539625E+03 E0= -.64533741E+03  d E =0.219367E-02
 BRION: g(F)=  0.200E-03 g(S)=  0.000E+00
 BRIONS problems: POTIM should be increased
 retain N=  1 mean eig=12.20
 eig:  12.203
 bond charge predicted
       N       E                     dE             d eps       ncg     rms          rms(c)
DAV:   1    -0.645374651281E+03    0.21602E-01   -0.13337E+01  3522   0.263E+00    0.455E-01
RMM:   2    -0.645396395862E+03   -0.21745E-01   -0.24235E-01  3532   0.491E-01    0.164E-01
RMM:   3    -0.645399266723E+03   -0.28709E-02   -0.27003E-02  4280   0.177E-01    0.109E-01
RMM:   4    -0.645399632774E+03   -0.36605E-03   -0.32099E-03  4958   0.606E-02    0.731E-02
RMM:   5    -0.645400081583E+03   -0.44881E-03   -0.22942E-03  3995   0.308E-02    0.400E-02
RMM:   6    -0.645400267382E+03   -0.18580E-03   -0.98257E-04  4682   0.172E-02    0.224E-02
RMM:   7    -0.645400372977E+03   -0.10560E-03   -0.62519E-04  4298   0.101E-02    0.158E-02
RMM:   8    -0.645400448729E+03   -0.75752E-04   -0.42705E-04  3920   0.800E-03    0.141E-02
RMM:   9    -0.645400551732E+03   -0.10300E-03   -0.24987E-04  3366   0.651E-03    0.140E-02
RMM:  10    -0.645400728205E+03   -0.17647E-03   -0.19730E-04  3871   0.820E-03    0.792E-03
RMM:  11    -0.645400771161E+03   -0.42956E-04   -0.10236E-04  2798   0.431E-03    0.460E-03
RMM:  12    -0.645400790636E+03   -0.19475E-04   -0.65363E-05  2160   0.309E-03    0.338E-03
RMM:  13    -0.645400861205E+03   -0.70570E-04   -0.56980E-05  3094   0.458E-03    0.273E-03
RMM:  14    -0.645400869713E+03   -0.85080E-05   -0.27354E-05  2066   0.234E-03    0.195E-03
RMM:  15    -0.645400874022E+03   -0.43091E-05   -0.17605E-05  1669   0.176E-03    0.190E-03
RMM:  16    -0.645400882252E+03   -0.82298E-05   -0.12396E-05  1861   0.178E-03    0.803E-04
RMM:  17    -0.645400885659E+03   -0.34071E-05   -0.79458E-06  1640   0.143E-03    0.626E-04
RMM:  18    -0.645400886893E+03   -0.12335E-05   -0.49846E-06  1293   0.111E-03    0.824E-04
RMM:  19    -0.645400887973E+03   -0.10803E-05   -0.35958E-06  1317   0.103E-03    0.791E-04
RMM:  20    -0.645400888543E+03   -0.57039E-06   -0.23505E-06  1054   0.864E-04
  48 F= -.64540089E+03 E0= -.64534204E+03  d E =-.463406E-02
 BRION: g(F)=  0.200E-03 g(S)=  0.000E+00 retain N=  1 mean eig= 5.50
 eig:   5.501
 bond charge predicted
       N       E                     dE             d eps       ncg     rms          rms(c)
DAV:   1    -0.645393272730E+03    0.76152E-02   -0.26770E+00  3582   0.117E+00    0.209E-01
RMM:   2    -0.645397841239E+03   -0.45685E-02   -0.50434E-02  3531   0.218E-01    0.753E-02
RMM:   3    -0.645398461314E+03   -0.62007E-03   -0.54829E-03  4303   0.781E-02    0.501E-02
RMM:   4    -0.645398559540E+03   -0.98226E-04   -0.70398E-04  4808   0.269E-02    0.325E-02
RMM:   5    -0.645398682511E+03   -0.12297E-03   -0.50207E-04  3757   0.137E-02    0.181E-02
RMM:   6    -0.645398725951E+03   -0.43440E-04   -0.22515E-04  3772   0.768E-03    0.947E-03
RMM:   7    -0.645398751722E+03   -0.25771E-04   -0.14443E-04  2544   0.465E-03    0.705E-03
RMM:   8    -0.645398771833E+03   -0.20111E-04   -0.98494E-05  2371   0.379E-03    0.661E-03
RMM:   9    -0.645398799830E+03   -0.27998E-04   -0.58060E-05  2312   0.314E-03    0.666E-03
RMM:  10    -0.645398848088E+03   -0.48257E-04   -0.47164E-05  2738   0.388E-03    0.426E-03
RMM:  11    -0.645398855587E+03   -0.74995E-05   -0.23111E-05  1909   0.197E-03    0.245E-03
RMM:  12    -0.645398860021E+03   -0.44344E-05   -0.15015E-05  1608   0.151E-03    0.183E-03
RMM:  13    -0.645398872851E+03   -0.12830E-04   -0.12487E-05  2091   0.206E-03    0.153E-03
RMM:  14    -0.645398873941E+03   -0.10903E-05   -0.59747E-06  1444   0.116E-03    0.934E-04
RMM:  15    -0.645398874642E+03   -0.70084E-06   -0.39332E-06  1115   0.920E-04
  49 F= -.64539887E+03 E0= -.64534003E+03  d E =0.201390E-02
 BRION: g(F)=  0.169E-03 g(S)=  0.000E+00 retain N=  1 mean eig= 7.27
 eig:   7.272
 bond charge predicted
       N       E                     dE             d eps       ncg     rms          rms(c)
DAV:   1    -0.645398941639E+03   -0.67698E-04   -0.23887E-01  3730   0.362E-01    0.626E-02
RMM:   2    -0.645399368528E+03   -0.42689E-03   -0.45700E-03  3521   0.692E-02    0.232E-02
RMM:   3    -0.645399436075E+03   -0.67546E-04   -0.50925E-04  4138   0.251E-02    0.151E-02
RMM:   4    -0.645399450989E+03   -0.14914E-04   -0.59747E-05  3544   0.861E-03    0.103E-02
RMM:   5    -0.645399470411E+03   -0.19422E-04   -0.42302E-05  2632   0.451E-03    0.571E-03
RMM:   6    -0.645399476066E+03   -0.56547E-05   -0.17517E-05  2236   0.259E-03    0.307E-03
RMM:   7    -0.645399479294E+03   -0.32279E-05   -0.11041E-05  2004   0.162E-03    0.208E-03
RMM:   8    -0.645399482576E+03   -0.32816E-05   -0.78758E-06  1715   0.132E-03    0.186E-03
RMM:   9    -0.645399486793E+03   -0.42179E-05   -0.45882E-06  1695   0.110E-03    0.202E-03
RMM:  10    -0.645399492961E+03   -0.61674E-05   -0.41399E-06  1672   0.123E-03    0.948E-04
RMM:  11    -0.645399494024E+03   -0.10627E-05   -0.18324E-06  1102   0.768E-04    0.664E-04
RMM:  12    -0.645399494584E+03   -0.56017E-06   -0.11829E-06   884   0.654E-04
  50 F= -.64539949E+03 E0= -.64534065E+03  d E =-.619942E-03
 BRION: g(F)=  0.215E-03 g(S)=  0.000E+00 retain N=  1 mean eig= 3.89
 eig:   3.890
 bond charge predicted
       N       E                     dE             d eps       ncg     rms          rms(c)
DAV:   1    -0.645398715642E+03    0.77838E-03   -0.14114E-01  3726   0.267E-01    0.474E-02
RMM:   2    -0.645398959373E+03   -0.24373E-03   -0.26443E-03  3481   0.502E-02    0.174E-02
RMM:   3    -0.645398996968E+03   -0.37594E-04   -0.28917E-04  3852   0.179E-02    0.114E-02
RMM:   4    -0.645399004868E+03   -0.79001E-05   -0.35334E-05  2987   0.624E-03    0.739E-03
RMM:   5    -0.645399014413E+03   -0.95458E-05   -0.24157E-05  2346   0.335E-03    0.459E-03
RMM:   6    -0.645399017419E+03   -0.30054E-05   -0.11045E-05  2104   0.199E-03    0.213E-03
RMM:   7    -0.645399019185E+03   -0.17663E-05   -0.70096E-06  1758   0.129E-03    0.152E-03
RMM:   8    -0.645399020733E+03   -0.15475E-05   -0.47300E-06  1364   0.102E-03    0.147E-03
RMM:   9    -0.645399022589E+03   -0.18559E-05   -0.29192E-06  1407   0.907E-04    0.167E-03
RMM:  10    -0.645399025465E+03   -0.28767E-05   -0.27240E-06  1573   0.104E-03    0.121E-03
RMM:  11    -0.645399025804E+03   -0.33821E-06   -0.11330E-06   833   0.642E-04
  51 F= -.64539903E+03 E0= -.64534018E+03  d E =0.468780E-03
 BRION: g(F)=  0.193E-03 g(S)=  0.000E+00
 BRIONS problems: POTIM should be increased
 retain N=  1 mean eig= 8.60
 eig:   8.597
 bond charge predicted
       N       E                     dE             d eps       ncg     rms          rms(c)
DAV:   1    -0.645398786043E+03    0.23942E-03   -0.24342E-02  3504   0.179E-01    0.217E-02
RMM:   2    -0.645398853238E+03   -0.67195E-04   -0.70683E-04  3405   0.357E-02    0.115E-02
RMM:   3    -0.645398859248E+03   -0.60103E-05   -0.77090E-05  3148   0.132E-02    0.738E-03
RMM:   4    -0.645398861099E+03   -0.18516E-05   -0.13330E-05  2447   0.548E-03    0.392E-03
RMM:   5    -0.645398862751E+03   -0.16518E-05   -0.54128E-06  2225   0.269E-03    0.299E-03
RMM:   6    -0.645398863283E+03   -0.53193E-06   -0.26206E-06  2025   0.155E-03
  52 F= -.64539886E+03 E0= -.64534001E+03  d E =0.162520E-03
 BRION: g(F)=  0.257E-03 g(S)=  0.000E+00 retain N=  1 mean eig= 0.37
 eig:   0.368
 bond charge predicted
       N       E                     dE             d eps       ncg     rms          rms(c)
DAV:   1    -0.645399041675E+03   -0.17892E-03   -0.49482E-02  3706   0.184E-01    0.295E-02
RMM:   2    -0.645399138770E+03   -0.97095E-04   -0.10511E-03  3470   0.377E-02    0.124E-02
RMM:   3    -0.645399149833E+03   -0.11063E-04   -0.11421E-04  3470   0.139E-02    0.773E-03
RMM:   4    -0.645399152061E+03   -0.22274E-05   -0.14130E-05  2574   0.512E-03    0.553E-03
RMM:   5    -0.645399153531E+03   -0.14706E-05   -0.68636E-06  2204   0.256E-03    0.417E-03
RMM:   6    -0.645399154181E+03   -0.64998E-06   -0.35311E-06  2058   0.159E-03
  53 F= -.64539915E+03 E0= -.64534031E+03  d E =-.290898E-03
 BRION: g(F)=  0.219E-03 g(S)=  0.000E+00 retain N=  1 mean eig= 0.60
 eig:   0.599
 bond charge predicted
       N       E                     dE             d eps       ncg     rms          rms(c)
DAV:   1    -0.645399236823E+03   -0.83292E-04   -0.71853E-03  3532   0.777E-02    0.114E-02
RMM:   2    -0.645399254074E+03   -0.17250E-04   -0.17883E-04  3277   0.162E-02    0.448E-03
RMM:   3    -0.645399256950E+03   -0.28766E-05   -0.21922E-05  2627   0.619E-03    0.349E-03
RMM:   4    -0.645399258009E+03   -0.10588E-05   -0.39962E-06  2179   0.256E-03    0.294E-03
RMM:   5    -0.645399258850E+03   -0.84132E-06   -0.21403E-06  1962   0.141E-03
  54 F= -.64539926E+03 E0= -.64534041E+03  d E =-.104669E-03
 BRION: g(F)=  0.222E-03 g(S)=  0.000E+00 retain N=  1 mean eig= 0.80
 eig:   0.797
 bond charge predicted
       N       E                     dE             d eps       ncg     rms          rms(c)
DAV:   1    -0.645399353581E+03   -0.95572E-04   -0.12610E-02  3548   0.108E-01    0.150E-02
RMM:   2    -0.645399384367E+03   -0.30786E-04   -0.31401E-04  3339   0.220E-02    0.651E-03
RMM:   3    -0.645399389180E+03   -0.48128E-05   -0.36193E-05  2818   0.814E-03    0.464E-03
RMM:   4    -0.645399391300E+03   -0.21203E-05   -0.60039E-06  2238   0.337E-03    0.408E-03
RMM:   5    -0.645399392495E+03   -0.11944E-05   -0.28504E-06  2049   0.176E-03    0.219E-03
RMM:   6    -0.645399393784E+03   -0.12890E-05   -0.16891E-06  1838   0.119E-03    0.868E-04
RMM:   7    -0.645399394466E+03   -0.68277E-06   -0.92904E-07  1403   0.812E-04
  55 F= -.64539939E+03 E0= -.64534055E+03  d E =-.135616E-03
 BRION: g(F)=  0.204E-03 g(S)=  0.000E+00 retain N=  1 mean eig= 0.58
 eig:   0.580
 bond charge predicted
       N       E                     dE             d eps       ncg     rms          rms(c)
DAV:   1    -0.645399507809E+03   -0.11403E-03   -0.14758E-02  3528   0.948E-02    0.155E-02
RMM:   2    -0.645399538020E+03   -0.30211E-04   -0.30622E-04  3327   0.187E-02    0.547E-03
RMM:   3    -0.645399543978E+03   -0.59579E-05   -0.34927E-05  2732   0.691E-03    0.415E-03
RMM:   4    -0.645399546030E+03   -0.20520E-05   -0.53414E-06  2188   0.272E-03    0.335E-03
RMM:   5    -0.645399548103E+03   -0.20731E-05   -0.33238E-06  2035   0.157E-03    0.206E-03
RMM:   6    -0.645399549425E+03   -0.13218E-05   -0.18707E-06  1714   0.106E-03    0.802E-04
RMM:   7    -0.645399549975E+03   -0.54982E-06   -0.10564E-06  1204   0.747E-04
  56 F= -.64539955E+03 E0= -.64534070E+03  d E =-.155509E-03
 BRION: g(F)=  0.204E-03 g(S)=  0.000E+00 retain N=  1 mean eig= 0.22
 eig:   0.224
 bond charge predicted
       N       E                     dE             d eps       ncg     rms          rms(c)
DAV:   1    -0.645399640999E+03   -0.91574E-04   -0.82271E-03  3502   0.675E-02    0.112E-02
RMM:   2    -0.645399658021E+03   -0.17022E-04   -0.16587E-04  2990   0.128E-02    0.375E-03
RMM:   3    -0.645399661948E+03   -0.39268E-05   -0.18973E-05  2401   0.468E-03    0.309E-03
RMM:   4    -0.645399663281E+03   -0.13329E-05   -0.31671E-06  2055   0.195E-03    0.256E-03
RMM:   5    -0.645399664680E+03   -0.13991E-05   -0.20925E-06  1814   0.121E-03    0.149E-03
RMM:   6    -0.645399665755E+03   -0.10752E-05   -0.12212E-06  1396   0.862E-04    0.632E-04
RMM:   7    -0.645399666154E+03   -0.39845E-06   -0.68629E-07  1003   0.651E-04
  57 F= -.64539967E+03 E0= -.64534082E+03  d E =-.116179E-03
 BRION: g(F)=  0.203E-03 g(S)=  0.000E+00 retain N=  1 mean eig= 1.59
 eig:   1.587
 bond charge predicted
       N       E                     dE             d eps       ncg     rms          rms(c)
DAV:   1    -0.645399780526E+03   -0.11477E-03   -0.15709E-02  3554   0.987E-02    0.158E-02
RMM:   2    -0.645399812401E+03   -0.31875E-04   -0.32240E-04  3313   0.192E-02    0.571E-03
RMM:   3    -0.645399818517E+03   -0.61164E-05   -0.36296E-05  2751   0.698E-03    0.424E-03
RMM:   4    -0.645399820794E+03   -0.22773E-05   -0.54796E-06  2157   0.271E-03    0.310E-03
RMM:   5    -0.645399823098E+03   -0.23036E-05   -0.36076E-06  2035   0.160E-03    0.204E-03
RMM:   6    -0.645399824203E+03   -0.11048E-05   -0.18694E-06  1711   0.105E-03    0.792E-04
RMM:   7    -0.645399824761E+03   -0.55878E-06   -0.11155E-06  1157   0.745E-04
  58 F= -.64539982E+03 E0= -.64534098E+03  d E =-.158608E-03
 BRION: g(F)=  0.218E-03 g(S)=  0.000E+00 retain N=  1 mean eig= 1.23
 eig:   1.231
 bond charge predicted
       N       E                     dE             d eps       ncg     rms          rms(c)
DAV:   1    -0.645399763456E+03    0.60747E-04   -0.20910E-03  3774   0.391E-02    0.658E-03
RMM:   2    -0.645399767571E+03   -0.41150E-05   -0.44230E-05  2540   0.806E-03    0.310E-03
RMM:   3    -0.645399768041E+03   -0.46992E-06   -0.44558E-06  2158   0.304E-03
  59 F= -.64539977E+03 E0= -.64534092E+03  d E =0.567208E-04
 BRION: g(F)=  0.217E-03 g(S)=  0.000E+00 retain N=  1 mean eig= 0.38
 eig:   0.384
 bond charge predicted
       N       E                     dE             d eps       ncg     rms          rms(c)
DAV:   1    -0.645399905296E+03   -0.13773E-03   -0.31854E-02  3616   0.153E-01    0.239E-02
RMM:   2    -0.645399970447E+03   -0.65152E-04   -0.69919E-04  3469   0.310E-02    0.965E-03
RMM:   3    -0.645399980093E+03   -0.96458E-05   -0.77486E-05  3404   0.115E-02    0.894E-03
RMM:   4    -0.645399981305E+03   -0.12118E-05   -0.11341E-05  2678   0.461E-03    0.627E-03
RMM:   5    -0.645399983278E+03   -0.19729E-05   -0.55777E-06  2116   0.230E-03    0.274E-03
RMM:   6    -0.645399985279E+03   -0.20011E-05   -0.32559E-06  2015   0.156E-03    0.147E-03
RMM:   7    -0.645399986019E+03   -0.74014E-06   -0.16724E-06  1617   0.984E-04
  60 F= -.64539999E+03 E0= -.64534114E+03  d E =-.217978E-03
 BRION: g(F)=  0.223E-03 g(S)=  0.000E+00 retain N=  1 mean eig= 0.25
 eig:   0.250
 bond charge predicted
       N       E                     dE             d eps       ncg     rms          rms(c)
DAV:   1    -0.645400049114E+03   -0.63835E-04   -0.38911E-03  3508   0.594E-02    0.825E-03
RMM:   2    -0.645400059447E+03   -0.10334E-04   -0.99794E-05  2904   0.121E-02    0.338E-03
RMM:   3    -0.645400061490E+03   -0.20433E-05   -0.12436E-05  2340   0.448E-03    0.265E-03
RMM:   4    -0.645400062347E+03   -0.85712E-06   -0.21248E-06  2001   0.190E-03
  61 F= -.64540006E+03 E0= -.64534121E+03  d E =-.763284E-04
 BRION: g(F)=  0.196E-03 g(S)=  0.000E+00 retain N=  1 mean eig= 0.78
 eig:   0.778
 bond charge predicted
       N       E                     dE             d eps       ncg     rms          rms(c)
DAV:   1    -0.645400192643E+03   -0.13115E-03   -0.32730E-02  3602   0.128E-01    0.229E-02
RMM:   2    -0.645400255071E+03   -0.62428E-04   -0.63511E-04  3410   0.244E-02    0.816E-03
RMM:   3    -0.645400267903E+03   -0.12832E-04   -0.71020E-05  3090   0.880E-03    0.636E-03
RMM:   4    -0.645400271651E+03   -0.37483E-05   -0.11140E-05  2359   0.342E-03    0.546E-03
RMM:   5    -0.645400276215E+03   -0.45636E-05   -0.74684E-06  2088   0.201E-03    0.239E-03
RMM:   6    -0.645400279648E+03   -0.34329E-05   -0.41146E-06  1895   0.137E-03    0.130E-03
RMM:   7    -0.645400280707E+03   -0.10592E-05   -0.23792E-06  1419   0.927E-04    0.918E-04
RMM:   8    -0.645400281636E+03   -0.92860E-06   -0.15528E-06  1017   0.749E-04
  62 F= -.64540028E+03 E0= -.64534143E+03  d E =-.219288E-03
 BRION: g(F)=  0.199E-03 g(S)=  0.000E+00 retain N=  2 mean eig= 2.07
 eig:   0.945  3.202
 bond charge predicted
       N       E                     dE             d eps       ncg     rms          rms(c)
DAV:   1    -0.645399333381E+03    0.94733E-03   -0.89416E-01  3596   0.677E-01    0.119E-01
RMM:   2    -0.645400899747E+03   -0.15664E-02   -0.16948E-02  3533   0.127E-01    0.431E-02
RMM:   3    -0.645401137775E+03   -0.23803E-03   -0.18511E-03  4299   0.453E-02    0.295E-02
RMM:   4    -0.645401191587E+03   -0.53812E-04   -0.26238E-04  4537   0.160E-02    0.191E-02
RMM:   5    -0.645401260922E+03   -0.69335E-04   -0.19037E-04  3424   0.858E-03    0.106E-02
RMM:   6    -0.645401281889E+03   -0.20967E-04   -0.87135E-05  2918   0.490E-03    0.572E-03
RMM:   7    -0.645401294328E+03   -0.12439E-04   -0.55734E-05  2189   0.313E-03    0.434E-03
RMM:   8    -0.645401304652E+03   -0.10324E-04   -0.38034E-05  2081   0.253E-03    0.429E-03
RMM:   9    -0.645401319853E+03   -0.15201E-04   -0.23274E-05  2072   0.217E-03    0.468E-03
RMM:  10    -0.645401353280E+03   -0.33428E-04   -0.22336E-05  2490   0.292E-03    0.315E-03
RMM:  11    -0.645401358226E+03   -0.49457E-05   -0.96677E-06  1671   0.150E-03    0.187E-03
RMM:  12    -0.645401361181E+03   -0.29550E-05   -0.63678E-06  1375   0.117E-03    0.123E-03
RMM:  13    -0.645401372187E+03   -0.11007E-04   -0.70562E-06  2025   0.171E-03    0.100E-03
RMM:  14    -0.645401372722E+03   -0.53436E-06   -0.28107E-06  1310   0.946E-04
  63 F= -.64540137E+03 E0= -.64534251E+03  d E =-.109109E-02
 BRION: g(F)=  0.183E-03 g(S)=  0.000E+00
 BRIONS problems: POTIM should be increased
 retain N=  1 mean eig=20.34
 eig:  20.345
 bond charge predicted
       N       E                     dE             d eps       ncg     rms          rms(c)
DAV:   1    -0.645396428260E+03    0.49439E-02   -0.32669E+00  3518   0.128E+00    0.228E-01
RMM:   2    -0.645402007849E+03   -0.55796E-02   -0.61533E-02  3535   0.239E-01    0.818E-02
RMM:   3    -0.645402781553E+03   -0.77370E-03   -0.67345E-03  4313   0.851E-02    0.558E-02
RMM:   4    -0.645402918670E+03   -0.13712E-03   -0.91545E-04  4888   0.299E-02    0.358E-02
RMM:   5    -0.645403090121E+03   -0.17145E-03   -0.66246E-04  3796   0.156E-02    0.202E-02
RMM:   6    -0.645403150504E+03   -0.60383E-04   -0.30292E-04  4087   0.885E-03    0.108E-02
RMM:   7    -0.645403186290E+03   -0.35786E-04   -0.19437E-04  2777   0.545E-03    0.809E-03
RMM:   8    -0.645403214139E+03   -0.27849E-04   -0.13262E-04  2528   0.446E-03    0.804E-03
RMM:   9    -0.645403252814E+03   -0.38675E-04   -0.77390E-05  2413   0.364E-03    0.751E-03
RMM:  10    -0.645403327923E+03   -0.75109E-04   -0.66988E-05  3053   0.490E-03    0.636E-03
RMM:  11    -0.645403340487E+03   -0.12564E-04   -0.32081E-05  2115   0.242E-03    0.356E-03
RMM:  12    -0.645403347114E+03   -0.66267E-05   -0.20530E-05  1718   0.182E-03    0.219E-03
RMM:  13    -0.645403377202E+03   -0.30089E-04   -0.21206E-05  2508   0.287E-03    0.198E-03
RMM:  14    -0.645403379740E+03   -0.25376E-05   -0.86226E-06  1714   0.147E-03    0.166E-03
RMM:  15    -0.645403381471E+03   -0.17316E-05   -0.56501E-06  1352   0.114E-03    0.163E-03
RMM:  16    -0.645403383198E+03   -0.17264E-05   -0.38582E-06  1464   0.109E-03    0.704E-04
RMM:  17    -0.645403383965E+03   -0.76721E-06   -0.24360E-06  1256   0.916E-04
  64 F= -.64540338E+03 E0= -.64534451E+03  d E =-.201124E-02
 BRION: g(F)=  0.188E-03 g(S)=  0.000E+00 retain N=  1 mean eig= 4.74
 eig:   4.737
 bond charge predicted
       N       E                     dE             d eps       ncg     rms          rms(c)
DAV:   1    -0.645400360421E+03    0.30228E-02   -0.91610E-01  3690   0.681E-01    0.122E-01
RMM:   2    -0.645401936864E+03   -0.15764E-02   -0.17280E-02  3533   0.128E-01    0.446E-02
RMM:   3    -0.645402156564E+03   -0.21970E-03   -0.18468E-03  4267   0.453E-02    0.297E-02
RMM:   4    -0.645402198106E+03   -0.41543E-04   -0.25083E-04  4464   0.160E-02    0.194E-02
RMM:   5    -0.645402251003E+03   -0.52896E-04   -0.18180E-04  3419   0.835E-03    0.117E-02
RMM:   6    -0.645402268056E+03   -0.17053E-04   -0.82419E-05  2860   0.479E-03    0.566E-03
RMM:   7    -0.645402278535E+03   -0.10479E-04   -0.53317E-05  2158   0.301E-03    0.416E-03
RMM:   8    -0.645402287791E+03   -0.92560E-05   -0.37020E-05  2087   0.249E-03    0.409E-03
RMM:   9    -0.645402300086E+03   -0.12295E-04   -0.21843E-05  2039   0.205E-03    0.420E-03
RMM:  10    -0.645402319119E+03   -0.19033E-04   -0.18687E-05  2227   0.244E-03    0.254E-03
RMM:  11    -0.645402322157E+03   -0.30375E-05   -0.89103E-06  1547   0.134E-03    0.171E-03
RMM:  12    -0.645402324090E+03   -0.19332E-05   -0.59291E-06  1257   0.107E-03    0.126E-03
RMM:  13    -0.645402328524E+03   -0.44339E-05   -0.48123E-06  1745   0.133E-03    0.104E-03
RMM:  14    -0.645402328897E+03   -0.37289E-06   -0.24453E-06  1070   0.824E-04
  65 F= -.64540233E+03 E0= -.64534346E+03  d E =0.105507E-02
 BRION: g(F)=  0.129E-03 g(S)=  0.000E+00
 BRIONS problems: POTIM should be increased
 retain N=  1 mean eig=19.15
 eig:  19.146
 bond charge predicted
       N       E                     dE             d eps       ncg     rms          rms(c)
DAV:   1    -0.645388194624E+03    0.14134E-01   -0.55739E+00  3500   0.165E+00    0.298E-01
RMM:   2    -0.645397578483E+03   -0.93839E-02   -0.10434E-01  3532   0.309E-01    0.106E-01
RMM:   3    -0.645398814559E+03   -0.12361E-02   -0.11427E-02  4347   0.110E-01    0.723E-02
RMM:   4    -0.645398995912E+03   -0.18135E-03   -0.14868E-03  4957   0.381E-02    0.470E-02
RMM:   5    -0.645399219051E+03   -0.22314E-03   -0.10974E-03  4026   0.198E-02    0.270E-02
RMM:   6    -0.645399304207E+03   -0.85156E-04   -0.49015E-04  4336   0.113E-02    0.144E-02
RMM:   7    -0.645399354717E+03   -0.50510E-04   -0.31595E-04  3093   0.689E-03    0.105E-02
RMM:   8    -0.645399391845E+03   -0.37128E-04   -0.21578E-04  2813   0.562E-03    0.993E-03
RMM:   9    -0.645399441058E+03   -0.49213E-04   -0.12653E-04  2700   0.457E-03    0.998E-03
RMM:  10    -0.645399527101E+03   -0.86043E-04   -0.10480E-04  3251   0.581E-03    0.761E-03
RMM:  11    -0.645399540707E+03   -0.13606E-04   -0.51065E-05  2215   0.288E-03    0.449E-03
RMM:  12    -0.645399548665E+03   -0.79580E-05   -0.33397E-05  1826   0.221E-03    0.304E-03
RMM:  13    -0.645399571707E+03   -0.23042E-04   -0.28313E-05  2541   0.314E-03    0.244E-03
RMM:  14    -0.645399573896E+03   -0.21891E-05   -0.13479E-05  1748   0.166E-03    0.171E-03
RMM:  15    -0.645399575563E+03   -0.16668E-05   -0.90871E-06  1414   0.131E-03    0.163E-03
RMM:  16    -0.645399577237E+03   -0.16742E-05   -0.60289E-06  1529   0.124E-03    0.841E-04
RMM:  17    -0.645399578199E+03   -0.96186E-06   -0.39609E-06  1281   0.103E-03
  66 F= -.64539958E+03 E0= -.64534073E+03  d E =0.275070E-02
 BRION: g(F)=  0.176E-03 g(S)=  0.000E+00
 BRIONS problems: POTIM should be increased
 retain N=  1 mean eig=10.78
 eig:  10.785
 bond charge predicted
       N       E                     dE             d eps       ncg     rms          rms(c)
DAV:   1    -0.645385018604E+03    0.14559E-01   -0.90188E+00  3542   0.211E+00    0.373E-01
RMM:   2    -0.645399796158E+03   -0.14778E-01   -0.16410E-01  3535   0.395E-01    0.136E-01
RMM:   3    -0.645401785530E+03   -0.19894E-02   -0.18040E-02  4311   0.141E-01    0.899E-02
RMM:   4    -0.645402066289E+03   -0.28076E-03   -0.22090E-03  4939   0.487E-02    0.591E-02
RMM:   5    -0.645402418593E+03   -0.35230E-03   -0.16264E-03  3971   0.252E-02    0.337E-02
RMM:   6    -0.645402552705E+03   -0.13411E-03   -0.69997E-04  4525   0.142E-02    0.184E-02
RMM:   7    -0.645402630083E+03   -0.77379E-04   -0.45453E-04  3777   0.852E-03    0.131E-02
RMM:   8    -0.645402686802E+03   -0.56719E-04   -0.31093E-04  3284   0.678E-03    0.116E-02
RMM:   9    -0.645402764458E+03   -0.77656E-04   -0.18604E-04  3029   0.554E-03    0.116E-02
RMM:  10    -0.645402914413E+03   -0.14996E-03   -0.15575E-04  3673   0.731E-03    0.840E-03
RMM:  11    -0.645402943337E+03   -0.28924E-04   -0.78428E-05  2550   0.364E-03    0.474E-03
RMM:  12    -0.645402958057E+03   -0.14720E-04   -0.50518E-05  2018   0.267E-03    0.302E-03
RMM:  13    -0.645403017021E+03   -0.58963E-04   -0.47817E-05  3008   0.419E-03    0.293E-03
RMM:  14    -0.645403023149E+03   -0.61280E-05   -0.21377E-05  2016   0.206E-03    0.229E-03
RMM:  15    -0.645403026567E+03   -0.34180E-05   -0.13777E-05  1579   0.154E-03    0.216E-03
RMM:  16    -0.645403032722E+03   -0.61554E-05   -0.97625E-06  1804   0.158E-03    0.715E-04
RMM:  17    -0.645403035185E+03   -0.24624E-05   -0.60674E-06  1543   0.124E-03    0.567E-04
RMM:  18    -0.645403036335E+03   -0.11501E-05   -0.37744E-06  1265   0.981E-04    0.826E-04
RMM:  19    -0.645403037546E+03   -0.12109E-05   -0.27119E-06  1391   0.941E-04    0.650E-04
RMM:  20    -0.645403038035E+03   -0.48955E-06   -0.16697E-06   940   0.757E-04
  67 F= -.64540304E+03 E0= -.64534416E+03  d E =-.345984E-02
 BRION: g(F)=  0.177E-03 g(S)=  0.000E+00
 BRIONS problems: POTIM should be increased
 retain N=  1 mean eig= 8.93
 eig:   8.934
 bond charge predicted
       N       E                     dE             d eps       ncg     rms          rms(c)
DAV:   1    -0.645397446410E+03    0.55911E-02   -0.19234E+00  3604   0.974E-01    0.177E-01
RMM:   2    -0.645400710398E+03   -0.32640E-02   -0.36102E-02  3534   0.183E-01    0.642E-02
RMM:   3    -0.645401159551E+03   -0.44915E-03   -0.39344E-03  4289   0.650E-02    0.427E-02
RMM:   4    -0.645401236582E+03   -0.77031E-04   -0.52628E-04  4743   0.228E-02    0.274E-02
RMM:   5    -0.645401331129E+03   -0.94547E-04   -0.37738E-04  3694   0.118E-02    0.157E-02
RMM:   6    -0.645401364291E+03   -0.33162E-04   -0.17282E-04  3432   0.673E-03    0.808E-03
 num prob RMM:   7    -0.645401384585E+03   -0.20294E-04   -0.11226E-04  2378   0.420E-03    0.595E-03
RMM:   8    -0.645401401541E+03   -0.16956E-04   -0.77488E-05  2266   0.348E-03    0.601E-03
RMM:   9    -0.645401422647E+03   -0.21105E-04   -0.45703E-05  2182   0.282E-03    0.601E-03
RMM:  10    -0.645401459482E+03   -0.36835E-04   -0.39174E-05  2570   0.355E-03    0.419E-03
RMM:  11    -0.645401465434E+03   -0.59523E-05   -0.18879E-05  1783   0.184E-03    0.258E-03
RMM:  12    -0.645401468901E+03   -0.34673E-05   -0.12574E-05  1495   0.143E-03    0.175E-03
RMM:  13    -0.645401478139E+03   -0.92374E-05   -0.10435E-05  1988   0.189E-03    0.137E-03
RMM:  14    -0.645401479018E+03   -0.87950E-06   -0.52881E-06  1373   0.111E-03
  68 F= -.64540148E+03 E0= -.64534262E+03  d E =0.155902E-02
 BRION: g(F)=  0.138E-03 g(S)=  0.000E+00
 BRIONS problems: POTIM should be increased
 retain N=  1 mean eig=10.13
 eig:  10.133
 bond charge predicted
       N       E                     dE             d eps       ncg     rms          rms(c)
DAV:   1    -0.645401581433E+03   -0.10329E-03   -0.28617E-02  3796   0.164E-01    0.234E-02
RMM:   2    -0.645401644004E+03   -0.62571E-04   -0.67751E-04  3432   0.330E-02    0.109E-02
RMM:   3    -0.645401649809E+03   -0.58047E-05   -0.70724E-05  3184   0.120E-02    0.664E-03
RMM:   4    -0.645401651325E+03   -0.15166E-05   -0.95169E-06  2379   0.470E-03    0.393E-03
RMM:   5    -0.645401652202E+03   -0.87680E-06   -0.34705E-06  2133   0.221E-03
  69 F= -.64540165E+03 E0= -.64534279E+03  d E =-.173184E-03
 BRION: g(F)=  0.210E-03 g(S)=  0.000E+00 retain N=  1 mean eig= 0.18
 eig:   0.180
 bond charge predicted
       N       E                     dE             d eps       ncg     rms          rms(c)
DAV:   1    -0.645401652757E+03   -0.14322E-05   -0.22045E-04  3740   0.238E-02    0.263E-03
RMM:   2    -0.645401654126E+03   -0.13682E-05   -0.11231E-05  2385   0.493E-03    0.225E-03
RMM:   3    -0.645401654262E+03   -0.13664E-06   -0.13213E-06  1854   0.191E-03
  70 F= -.64540165E+03 E0= -.64534279E+03  d E =-.206021E-05
 BRION: g(F)=  0.168E-03 g(S)=  0.000E+00 retain N=  1 mean eig= 0.29
 eig:   0.287
 bond charge predicted
       N       E                     dE             d eps       ncg     rms          rms(c)
DAV:   1    -0.645401745911E+03   -0.91786E-04   -0.12369E-02  3580   0.872E-02    0.139E-02
RMM:   2    -0.645401769415E+03   -0.23504E-04   -0.24431E-04  3029   0.159E-02    0.479E-03
RMM:   3    -0.645401773288E+03   -0.38730E-05   -0.25801E-05  2502   0.568E-03    0.350E-03
RMM:   4    -0.645401774533E+03   -0.12447E-05   -0.39026E-06  2073   0.227E-03    0.299E-03
RMM:   5    -0.645401775549E+03   -0.10155E-05   -0.24371E-06  1844   0.127E-03    0.131E-03
RMM:   6    -0.645401776214E+03   -0.66580E-06   -0.12672E-06  1351   0.831E-04
  71 F= -.64540178E+03 E0= -.64534291E+03  d E =-.121952E-03
 BRION: g(F)=  0.198E-03 g(S)=  0.000E+00 retain N=  1 mean eig= 5.32
 eig:   5.315
 bond charge predicted
       N       E                     dE             d eps       ncg     rms          rms(c)
DAV:   1    -0.645399693862E+03    0.20817E-02   -0.57429E-01  3632   0.560E-01    0.965E-02
RMM:   2    -0.645400698260E+03   -0.10044E-02   -0.10911E-02  3500   0.997E-02    0.347E-02
RMM:   3    -0.645400835282E+03   -0.13702E-03   -0.11285E-03  4204   0.350E-02    0.226E-02
RMM:   4    -0.645400869357E+03   -0.34075E-04   -0.15781E-04  4025   0.123E-02    0.113E-02
RMM:   5    -0.645400898182E+03   -0.28825E-04   -0.93998E-05  2970   0.592E-03    0.698E-03
RMM:   6    -0.645400908138E+03   -0.99564E-05   -0.49949E-05  2362   0.338E-03    0.369E-03
RMM:   7    -0.645400913484E+03   -0.53452E-05   -0.30727E-05  2021   0.211E-03    0.355E-03
RMM:   8    -0.645400916351E+03   -0.28678E-05   -0.20018E-05  1677   0.155E-03    0.424E-03
RMM:   9    -0.645400920853E+03   -0.45013E-05   -0.12633E-05  1639   0.137E-03    0.741E-03
RMM:  10    -0.645400926914E+03   -0.60614E-05   -0.13066E-05  1813   0.158E-03    0.165E-02
RMM:  11    -0.645400927926E+03   -0.10113E-05   -0.67843E-06  1511   0.124E-03    0.262E-02
RMM:  12    -0.645400935189E+03   -0.72637E-05   -0.10135E-05  1953   0.229E-03    0.599E-03
RMM:  13    -0.645400940802E+03   -0.56132E-05   -0.32526E-06  1634   0.132E-03    0.164E-02
RMM:  14    -0.645400941072E+03   -0.26910E-06   -0.16564E-06  1039   0.787E-04
  72 F= -.64540094E+03 E0= -.64534208E+03  d E =0.835143E-03
 BRION: g(F)=  0.171E-03 g(S)=  0.000E+00
 BRIONS problems: POTIM should be increased
 retain N=  1 mean eig=26.41
 eig:  26.411
 bond charge predicted
       N       E                     dE             d eps       ncg     rms          rms(c)
DAV:   1    -0.645390163164E+03    0.10778E-01   -0.40500E+00  3508   0.147E+00    0.255E-01
RMM:   2    -0.645397076509E+03   -0.69133E-02   -0.76317E-02  3525   0.264E-01    0.916E-02
RMM:   3    -0.645397966115E+03   -0.88961E-03   -0.79984E-03  4351   0.929E-02    0.597E-02
RMM:   4    -0.645398154491E+03   -0.18838E-03   -0.11580E-03  4830   0.326E-02    0.293E-02
RMM:   5    -0.645398315799E+03   -0.16131E-03   -0.65771E-04  4090   0.152E-02    0.196E-02
RMM:   6    -0.645398382031E+03   -0.66231E-04   -0.36336E-04  3963   0.836E-03    0.974E-03
RMM:   7    -0.645398419011E+03   -0.36980E-04   -0.22410E-04  2668   0.512E-03    0.960E-03
RMM:   8    -0.645398442177E+03   -0.23166E-04   -0.14624E-04  2243   0.376E-03    0.103E-02
 num prob RMM:   9    -0.645398458047E+03   -0.15870E-04   -0.88447E-05  2075   0.286E-03    0.108E-02
RMM:  10    -0.645398471812E+03   -0.13764E-04   -0.57615E-05  1804   0.230E-03    0.913E-03
RMM:  11    -0.645398587671E+03   -0.11586E-03   -0.54310E-05  3339   0.579E-03    0.405E-02
RMM:  12    -0.645398603334E+03   -0.15664E-04   -0.23153E-05  2437   0.269E-03    0.321E-02
RMM:  13    -0.645398598221E+03    0.51127E-05   -0.15655E-05  1830   0.175E-03    0.211E-02
RMM:  14    -0.645398600352E+03   -0.21301E-05   -0.97125E-06  1349   0.118E-03    0.222E-02
RMM:  15    -0.645398606300E+03   -0.59486E-05   -0.13102E-05  2021   0.210E-03    0.308E-03
RMM:  16    -0.645398616999E+03   -0.10699E-04   -0.65398E-06  1844   0.150E-03    0.580E-03
RMM:  17    -0.645398620023E+03   -0.30246E-05   -0.39791E-06  1455   0.105E-03    0.784E-03
RMM:  18    -0.645398622331E+03   -0.23071E-05   -0.27960E-06  1483   0.109E-03    0.407E-04
RMM:  19    -0.645398622852E+03   -0.52177E-06   -0.14993E-06  1047   0.745E-04
  73 F= -.64539862E+03 E0= -.64533980E+03  d E =0.231822E-02
 BRION: g(F)=  0.272E-03 g(S)=  0.000E+00 retain N=  1 mean eig= 1.44
 eig:   1.442
 bond charge predicted
       N       E                     dE             d eps       ncg     rms          rms(c)
DAV:   1    -0.645395348522E+03    0.32738E-02   -0.24045E+00  3616   0.114E+00    0.195E-01
RMM:   2    -0.645399476089E+03   -0.41276E-02   -0.45262E-02  3524   0.205E-01    0.704E-02
RMM:   3    -0.645400020836E+03   -0.54475E-03   -0.46976E-03  4282   0.718E-02    0.459E-02
RMM:   4    -0.645400146208E+03   -0.12537E-03   -0.67012E-04  4717   0.253E-02    0.221E-02
RMM:   5    -0.645400254866E+03   -0.10866E-03   -0.39296E-04  3858   0.118E-02    0.121E-02
RMM:   6    -0.645400296693E+03   -0.41827E-04   -0.21091E-04  3426   0.641E-03    0.751E-03
RMM:   7    -0.645400319026E+03   -0.22333E-04   -0.13000E-04  2350   0.395E-03    0.727E-03
RMM:   8    -0.645400333279E+03   -0.14253E-04   -0.85370E-05  2101   0.297E-03    0.765E-03
RMM:   9    -0.645400350125E+03   -0.16845E-04   -0.51365E-05  1989   0.238E-03    0.613E-03
RMM:  10    -0.645400417698E+03   -0.67573E-04   -0.49747E-05  2854   0.440E-03    0.193E-02
RMM:  11    -0.645400432434E+03   -0.14736E-04   -0.25288E-05  2231   0.248E-03    0.157E-02
RMM:  12    -0.645400432321E+03    0.11280E-06   -0.13767E-05  1646   0.151E-03    0.114E-02
RMM:  13    -0.645400432282E+03    0.38603E-07   -0.91536E-06  1291   0.114E-03
  74 F= -.64540043E+03 E0= -.64534159E+03  d E =-.180943E-02
 BRION: g(F)=  0.213E-03 g(S)=  0.000E+00 retain N=  1 mean eig= 4.60
 eig:   4.604
 bond charge predicted
       N       E                     dE             d eps       ncg     rms          rms(c)
DAV:   1    -0.645400186684E+03    0.24564E-03   -0.32095E-02  3780   0.139E-01    0.247E-02
RMM:   2    -0.645400241807E+03   -0.55123E-04   -0.60878E-04  3334   0.263E-02    0.989E-03
RMM:   3    -0.645400248806E+03   -0.69989E-05   -0.62331E-05  2938   0.943E-03    0.560E-03
RMM:   4    -0.645400250310E+03   -0.15042E-05   -0.63996E-06  2458   0.359E-03    0.556E-03
RMM:   5    -0.645400250396E+03   -0.86153E-07   -0.29095E-06  2026   0.179E-03
srun: Job step aborted: Waiting up to 32 seconds for job step to finish.
slurmstepd: error: *** STEP 67427853.0 ON b01r3n19 CANCELLED AT 2024-07-18T14:32:48 ***
slurmstepd: error: *** JOB 67427853 ON b01r3n19 CANCELLED AT 2024-07-18T14:32:48 ***
