srun: ROUTE: split_hostlist: hl=i01r2n19 tree_width 0
 running on    4 total cores
 distrk:  each k-point on    1 cores,    4 groups
 distr:  one band on    1 cores,    1 groups
 HIP runtime initialized ...    4 DCUs will be used
 Created    4 streams on each DCU
 vasp.6.3.2 27Jun22 (build Mar 15 2023 15:45:48) complex                        
  
 POSCAR found type information on POSCAR C F SiK 
 POSCAR found :  4 types and      98 ions
 Reading from existing POTCAR
 scaLAPACK will be used selectively (only on CPU)
 Reading from existing POTCAR
 LDA part: xc-table for Pade appr. of Perdew
 POSCAR found type information on POSCAR C F SiK 
 POSCAR found :  4 types and      98 ions
 Optimize memory usage for KPAR
 POSCAR, INCAR and KPOINTS ok, starting setup
 FFT: planning ... GRIDC
 FFT: planning ... GRID_SOFT
 FFT: planning ... GRID
 WAVECAR not read
 entering main loop
       N       E                     dE             d eps       ncg     rms          rms(c)
DAV:   1     0.216406421031E+04    0.21641E+04   -0.16898E+05  3500   0.137E+03
DAV:   2    -0.386968183653E+03   -0.25510E+04   -0.24390E+04  4404   0.271E+02
DAV:   3    -0.701192553944E+03   -0.31422E+03   -0.30763E+03  4520   0.886E+01
DAV:   4    -0.719106788643E+03   -0.17914E+02   -0.17784E+02  4920   0.223E+01
DAV:   5    -0.719859002057E+03   -0.75221E+00   -0.75105E+00  5136   0.403E+00    0.447E+01
RMM:   6    -0.642921664556E+03    0.76937E+02   -0.23866E+02  3521   0.208E+01    0.159E+01
RMM:   7    -0.644525829399E+03   -0.16042E+01   -0.87504E+01  3683   0.137E+01    0.105E+01
RMM:   8    -0.643416270050E+03    0.11096E+01   -0.96570E+00  3749   0.526E+00    0.728E+00
RMM:   9    -0.643176935356E+03    0.23933E+00   -0.83751E+00  3589   0.434E+00    0.330E+00
RMM:  10    -0.642616707574E+03    0.56023E+00   -0.84782E-01  3799   0.168E+00    0.201E+00
RMM:  11    -0.642525079094E+03    0.91628E-01   -0.52710E-01  4503   0.964E-01    0.113E+00
RMM:  12    -0.642536934556E+03   -0.11855E-01   -0.86023E-01  4084   0.123E+00    0.980E-01
RMM:  13    -0.642493796404E+03    0.43138E-01   -0.13299E-01  3767   0.590E-01    0.439E-01
RMM:  14    -0.642491649960E+03    0.21464E-02   -0.51812E-02  4778   0.336E-01    0.295E-01
RMM:  15    -0.642489734557E+03    0.19154E-02   -0.28740E-02  5341   0.214E-01    0.266E-01
RMM:  16    -0.642496069310E+03   -0.63348E-02   -0.23958E-02  5197   0.176E-01    0.309E-01
RMM:  17    -0.642497327948E+03   -0.12586E-02   -0.11604E-02  5388   0.137E-01    0.116E-01
RMM:  18    -0.642499115748E+03   -0.17878E-02   -0.50880E-03  5654   0.956E-02    0.792E-02
RMM:  19    -0.642501687045E+03   -0.25713E-02   -0.30141E-03  5817   0.672E-02    0.100E-01
RMM:  20    -0.642503509947E+03   -0.18229E-02   -0.18836E-03  5744   0.525E-02    0.535E-02
RMM:  21    -0.642506715063E+03   -0.32051E-02   -0.16247E-03  5499   0.500E-02    0.498E-02
RMM:  22    -0.642507398993E+03   -0.68393E-03   -0.87695E-04  5647   0.352E-02    0.340E-02
RMM:  23    -0.642507983153E+03   -0.58416E-03   -0.70106E-04  5721   0.330E-02    0.386E-02
RMM:  24    -0.642508573184E+03   -0.59003E-03   -0.37931E-04  5427   0.264E-02    0.127E-02
RMM:  25    -0.642508675810E+03   -0.10263E-03   -0.17116E-04  5906   0.170E-02    0.878E-03
WARNING in EDDRMM: call to ZHEGV failed, returncode =   8  4     23
RMM:  26    -0.642508769896E+03   -0.94087E-04   -0.72677E-05  5882   0.112E-02    0.637E-03
WARNING in EDDRMM: call to ZHEGV failed, returncode =   6  3     46
RMM:  27    -0.642508831728E+03   -0.61831E-04   -0.46216E-05  5116   0.834E-03    0.486E-03
 num prob  num prob  num prob  num prob  num prob  num prob  num prob  num prob  num prob  num prob  num prob WARNING in EDDRMM: call to ZHEGV failed, returncode =   6  3    175
WARNING in EDDRMM: call to ZHEGV failed, returncode =   6  3    183
 num prob  num prob  num prob  num prob  num prob  num prob  num prob  num prob  num prob  num prob RMM:  28    -0.642508855776E+03   -0.24049E-04   -0.27260E-05  4259   0.645E-03    0.488E-03
 num prob RMM:  29    -0.642508880126E+03   -0.24349E-04   -0.21013E-05  4684   0.563E-03    0.186E-03
 num prob  num prob  num prob  num prob  num prob  num prob  num prob  num prob  num prob  num prob  num prob  num prob  num prob RMM:  30    -0.642508891162E+03   -0.11037E-04   -0.14574E-05  3663   0.461E-03    0.919E-04
 num prob  num prob  num prob  num prob  num prob  num prob  num prob  num prob  num prob  num prob  num prob  num prob  num prob  num prob  num prob  num prob  num prob  num prob  num prob  num prob  num prob  num prob  num prob  num prob  num prob  num prob  num prob  num prob  num prob  num prob  num prob  num prob  num prob  num prob  num prob  num prob  num prob RMM:  31    -0.642508892492E+03   -0.13292E-05   -0.74086E-06  2848   0.364E-03    0.814E-04
 num prob  num prob  num prob  num prob  num prob  num prob  num prob  num prob  num prob  num prob  num prob  num prob  num prob  num prob  num prob  num prob  num prob  num prob  num prob  num prob  num prob  num prob  num prob  num prob RMM:  32    -0.642508893859E+03   -0.13676E-05   -0.71657E-06  2976   0.334E-03    0.826E-04
 num prob  num prob  num prob  num prob  num prob  num prob  num prob  num prob  num prob  num prob  num prob  num prob  num prob  num prob  num prob  num prob RMM:  33    -0.642508895127E+03   -0.12674E-05   -0.52043E-06  2588   0.287E-03    0.371E-04
 num prob  num prob  num prob  num prob  num prob  num prob  num prob  num prob  num prob WARNING in EDDRMM: call to ZHEGV failed, returncode =   8  4     44
 num prob  num prob  num prob  num prob  num prob  num prob  num prob RMM:  34    -0.642508895905E+03   -0.77801E-06   -0.42685E-06  2558   0.255E-03
   1 F= -.64250890E+03 E0= -.64245229E+03  d E =-.642509E+03
 curvature:   0.00 expect dE= 0.000E+00 dE for cont linesearch  0.000E+00
 trial: gam= 0.00000 g(F)=  0.538E+01 g(S)=  0.000E+00 ort = 0.000E+00 (trialstep = 0.100E+01)
 search vector abs. value=  0.538E+01
 bond charge predicted
       N       E                     dE             d eps       ncg     rms          rms(c)
DAV:   1    -0.642947028891E+03   -0.43813E+00   -0.45446E+02  3580   0.207E+01    0.252E+00
RMM:   2    -0.643980328643E+03   -0.10333E+01   -0.11514E+01  3678   0.420E+00    0.126E+00
RMM:   3    -0.644136067935E+03   -0.15574E+00   -0.18710E+00  5483   0.174E+00    0.893E-01
RMM:   4    -0.644153817793E+03   -0.17750E-01   -0.31044E-01  5919   0.657E-01    0.582E-01
RMM:   5    -0.644163716292E+03   -0.98985E-02   -0.13756E-01  5913   0.390E-01    0.377E-01
RMM:   6    -0.644169703815E+03   -0.59875E-02   -0.75363E-02  6002   0.255E-01    0.214E-01
WARNING in EDDRMM: call to ZHEGV failed, returncode =   8  4     60
RMM:   7    -0.644174345746E+03   -0.46419E-02   -0.44734E-02  6162   0.184E-01    0.148E-01
RMM:   8    -0.644177390897E+03   -0.30452E-02   -0.25980E-02  6260   0.139E-01    0.151E-01
RMM:   9    -0.644179290022E+03   -0.18991E-02   -0.16589E-02  6215   0.108E-01    0.143E-01
RMM:  10    -0.644180847741E+03   -0.15577E-02   -0.98238E-03  6186   0.881E-02    0.489E-02
WARNING in EDDRMM: call to ZHEGV failed, returncode =   6  3    152
RMM:  11    -0.644181830174E+03   -0.98243E-03   -0.65954E-03  6129   0.715E-02    0.559E-02
RMM:  12    -0.644182308305E+03   -0.47813E-03   -0.46871E-03  6140   0.577E-02    0.152E-02
RMM:  13    -0.644183103675E+03   -0.79537E-03   -0.33476E-03  6116   0.523E-02    0.287E-02
RMM:  14    -0.644183599033E+03   -0.49536E-03   -0.23677E-03  6102   0.425E-02    0.286E-02
RMM:  15    -0.644183832113E+03   -0.23308E-03   -0.16292E-03  6055   0.352E-02    0.158E-02
RMM:  16    -0.644183965248E+03   -0.13313E-03   -0.12285E-03  6053   0.300E-02    0.866E-03
WARNING in EDDRMM: call to ZHEGV failed, returncode =   8  4     90
WARNING in EDDRMM: call to ZHEGV failed, returncode =   8  4    112
 num prob RMM:  17    -0.644184071285E+03   -0.10604E-03   -0.91594E-04  5604   0.247E-02    0.864E-03
 num prob  num prob WARNING in EDDRMM: call to ZHEGV failed, returncode =   6  3    192
RMM:  18    -0.644184164656E+03   -0.93371E-04   -0.71320E-04  5165   0.213E-02    0.457E-03
 num prob RMM:  19    -0.644184305864E+03   -0.14121E-03   -0.57800E-04  5638   0.196E-02    0.509E-03
 num prob  num prob  num prob  num prob  num prob  num prob  num prob  num prob  num prob  num prob  num prob  num prob  num prob  num prob  num prob  num prob  num prob  num prob WARNING in EDDRMM: call to ZHEGV failed, returncode =   8  4    180
 num prob  num prob  num prob  num prob  num prob  num prob  num prob  num prob  num prob  num prob  num prob  num prob  num prob  num prob  num prob  num prob  num prob  num prob  num prob  num prob  num prob  num prob  num prob RMM:  20    -0.644184374348E+03   -0.68484E-04   -0.47432E-04  4238   0.167E-02    0.443E-03
 num prob RMM:  21    -0.644184449705E+03   -0.75357E-04   -0.40168E-04  4951   0.154E-02    0.207E-03
 num prob  num prob  num prob  num prob  num prob  num prob  num prob  num prob  num prob  num prob  num prob  num prob  num prob  num prob  num prob  num prob  num prob  num prob  num prob  num prob  num prob  num prob  num prob  num prob  num prob  num prob  num prob  num prob  num prob  num prob  num prob  num prob  num prob  num prob  num prob  num prob  num prob  num prob  num prob  num prob  num prob  num prob  num prob  num prob  num prob  num prob RMM:  22    -0.644184495858E+03   -0.46153E-04   -0.33719E-04  3735   0.137E-02    0.130E-03
 num prob  num prob  num prob  num prob  num prob  num prob  num prob  num prob  num prob  num prob  num prob  num prob  num prob  num prob RMM:  23    -0.644184527888E+03   -0.32030E-04   -0.28879E-04  3524   0.124E-02    0.193E-03
 num prob  num prob  num prob  num prob  num prob  num prob  num prob  num prob  num prob  num prob  num prob  num prob  num prob  num prob  num prob  num prob  num prob  num prob  num prob  num prob  num prob  num prob  num prob  num prob  num prob  num prob  num prob  num prob  num prob  num prob  num prob  num prob  num prob  num prob  num prob  num prob  num prob  num prob  num prob  num prob  num prob RMM:  24    -0.644184556043E+03   -0.28154E-04   -0.24779E-04  3209   0.114E-02    0.203E-03
 num prob  num prob  num prob RMM:  25    -0.644184578939E+03   -0.22897E-04   -0.21530E-04  3049   0.105E-02    0.865E-04
 num prob  num prob  num prob  num prob  num prob  num prob  num prob  num prob  num prob  num prob  num prob  num prob  num prob  num prob  num prob  num prob  num prob  num prob  num prob  num prob RMM:  26    -0.644184597692E+03   -0.18752E-04   -0.18780E-04  2848   0.958E-03    0.816E-04
RMM:  27    -0.644184614041E+03   -0.16349E-04   -0.16478E-04  2629   0.884E-03    0.623E-04
 num prob  num prob  num prob  num prob  num prob RMM:  28    -0.644184628297E+03   -0.14256E-04   -0.14502E-04  2577   0.817E-03    0.244E-04
 num prob  num prob  num prob RMM:  29    -0.644184640723E+03   -0.12427E-04   -0.12758E-04  2284   0.755E-03    0.338E-04
 num prob  num prob  num prob RMM:  30    -0.644184651680E+03   -0.10957E-04   -0.11298E-04  2136   0.702E-03    0.417E-04
 num prob  num prob  num prob WARNING in EDDRMM: call to ZHEGV failed, returncode =   8  4     24
 num prob  num prob RMM:  31    -0.644184661346E+03   -0.96660E-05   -0.99837E-05  1987   0.654E-03    0.621E-04
 num prob  num prob  num prob  num prob  num prob RMM:  32    -0.644184669935E+03   -0.85888E-05   -0.88610E-05  1873   0.611E-03    0.136E-03
 num prob  num prob RMM:  33    -0.644184677529E+03   -0.75946E-05   -0.78756E-05  1818   0.574E-03    0.135E-03
 num prob  num prob  num prob RMM:  34    -0.644184684260E+03   -0.67310E-05   -0.69894E-05  1726   0.539E-03    0.124E-03
 num prob  num prob  num prob RMM:  35    -0.644184690249E+03   -0.59886E-05   -0.62241E-05  1635   0.507E-03    0.105E-03
 num prob  num prob  num prob RMM:  36    -0.644184695570E+03   -0.53208E-05   -0.55389E-05  1550   0.478E-03    0.839E-04
 num prob  num prob  num prob  num prob RMM:  37    -0.644184700301E+03   -0.47311E-05   -0.49321E-05  1466   0.452E-03    0.556E-04
 num prob  num prob  num prob  num prob  num prob RMM:  38    -0.644184704518E+03   -0.42171E-05   -0.43972E-05  1353   0.427E-03    0.656E-04
 num prob  num prob  num prob  num prob RMM:  39    -0.644184708281E+03   -0.37627E-05   -0.39263E-05  1274   0.405E-03    0.994E-04
 num prob  num prob  num prob  num prob  num prob  num prob  num prob RMM:  40    -0.644184711624E+03   -0.33429E-05   -0.35007E-05  1232   0.386E-03    0.110E-03
 num prob  num prob RMM:  41    -0.644184714608E+03   -0.29842E-05   -0.31302E-05  1202   0.367E-03    0.113E-03
 num prob  num prob  num prob  num prob RMM:  42    -0.644184717267E+03   -0.26592E-05   -0.27954E-05  1185   0.350E-03    0.116E-03
 num prob  num prob RMM:  43    -0.644184719646E+03   -0.23788E-05   -0.25052E-05  1150   0.334E-03    0.125E-03
 num prob  num prob  num prob  num prob  num prob RMM:  44    -0.644184721764E+03   -0.21182E-05   -0.22366E-05  1124   0.319E-03    0.130E-03
 num prob WARNING in EDDRMM: call to ZHEGV failed, returncode =   8  4     45
RMM:  45    -0.644184723658E+03   -0.18944E-05   -0.20075E-05  1085   0.305E-03    0.137E-03
 num prob  num prob  num prob  num prob RMM:  46    -0.644184725347E+03   -0.16888E-05   -0.17945E-05  1063   0.292E-03    0.151E-03
 num prob  num prob  num prob RMM:  47    -0.644184726855E+03   -0.15076E-05   -0.16122E-05  1087   0.281E-03    0.138E-03
 num prob RMM:  48    -0.644184728198E+03   -0.13431E-05   -0.14429E-05  1107   0.269E-03    0.118E-03
 num prob RMM:  49    -0.644184729399E+03   -0.12012E-05   -0.12958E-05  1073   0.258E-03    0.929E-04
 num prob  num prob  num prob  num prob  num prob  num prob RMM:  50    -0.644184730469E+03   -0.10695E-05   -0.11584E-05  1010   0.248E-03    0.887E-04
 num prob  num prob RMM:  51    -0.644184731435E+03   -0.96613E-06   -0.10471E-05   975   0.238E-03    0.108E-03
 num prob  num prob  num prob RMM:  52    -0.644184732288E+03   -0.85343E-06   -0.93648E-06   959   0.229E-03
   2 F= -.64418473E+03 E0= -.64412634E+03  d E =-.167584E+01
 trial-energy change:   -1.675836  1 .order   -2.116487   -5.377389    1.144414
 step:   0.7481(harm=  0.8245)  dis= 0.25363  next Energy=  -644.335890 (dE=-0.183E+01)
 bond charge predicted
       N       E                     dE             d eps       ncg     rms          rms(c)
DAV:   1    -0.644263162994E+03   -0.78432E-01   -0.26033E+01  3688   0.456E+00    0.703E-01
RMM:   2    -0.644314280160E+03   -0.51117E-01   -0.62074E-01  3652   0.113E+00    0.370E-01
RMM:   3    -0.644321727353E+03   -0.74472E-02   -0.10676E-01  4668   0.445E-01    0.241E-01
RMM:   4    -0.644322478593E+03   -0.75124E-03   -0.14977E-02  5579   0.172E-01    0.163E-01
RMM:   5    -0.644323076699E+03   -0.59811E-03   -0.54142E-03  5563   0.872E-02    0.123E-01
RMM:   6    -0.644323188492E+03   -0.11179E-03   -0.23752E-03  5683   0.511E-02    0.507E-02
RMM:   7    -0.644323443607E+03   -0.25512E-03   -0.13114E-03  5920   0.329E-02    0.281E-02
RMM:   8    -0.644323617003E+03   -0.17340E-03   -0.85140E-04  5846   0.254E-02    0.325E-02
WARNING in EDDRMM: call to ZHEGV failed, returncode =   6  3     93
RMM:   9    -0.644323747520E+03   -0.13052E-03   -0.55094E-04  5832   0.201E-02    0.202E-02
RMM:  10    -0.644323905471E+03   -0.15795E-03   -0.37738E-04  5727   0.168E-02    0.969E-03
RMM:  11    -0.644324061814E+03   -0.15634E-03   -0.25787E-04  5635   0.148E-02    0.148E-02
WARNING in EDDRMM: call to ZHEGV failed, returncode =   8  4     71
RMM:  12    -0.644324104873E+03   -0.43059E-04   -0.16618E-04  4869   0.104E-02    0.754E-03
RMM:  13    -0.644324217148E+03   -0.11227E-03   -0.13875E-04  5453   0.119E-02    0.652E-03
RMM:  14    -0.644324278524E+03   -0.61376E-04   -0.93841E-05  4880   0.874E-03    0.678E-03
WARNING in EDDRMM: call to ZHEGV failed, returncode =   6  3     80
RMM:  15    -0.644324315222E+03   -0.36698E-04   -0.64636E-05  3537   0.657E-03    0.507E-03
RMM:  16    -0.644324372686E+03   -0.57464E-04   -0.70184E-05  4727   0.791E-03    0.513E-03
 num prob RMM:  17    -0.644324391010E+03   -0.18324E-04   -0.37796E-05  3040   0.532E-03    0.242E-03
 num prob  num prob RMM:  18    -0.644324402750E+03   -0.11740E-04   -0.28369E-05  2561   0.425E-03    0.189E-03
 num prob  num prob  num prob  num prob RMM:  19    -0.644324418099E+03   -0.15349E-04   -0.24998E-05  2636   0.415E-03    0.154E-03
RMM:  20    -0.644324434155E+03   -0.16056E-04   -0.20873E-05  2588   0.369E-03    0.203E-03
 num prob  num prob  num prob RMM:  21    -0.644324439878E+03   -0.57235E-05   -0.16265E-05  2262   0.302E-03    0.206E-03
 num prob  num prob RMM:  22    -0.644324442924E+03   -0.30461E-05   -0.13555E-05  2262   0.278E-03    0.164E-03
 num prob  num prob  num prob RMM:  23    -0.644324444691E+03   -0.17670E-05   -0.11555E-05  1842   0.238E-03    0.131E-03
 num prob  num prob  num prob  num prob  num prob RMM:  24    -0.644324446077E+03   -0.13858E-05   -0.98628E-06  1519   0.215E-03    0.753E-04
 num prob  num prob  num prob RMM:  25    -0.644324447098E+03   -0.10208E-05   -0.84804E-06  1551   0.202E-03    0.353E-04
 num prob  num prob  num prob  num prob RMM:  26    -0.644324447873E+03   -0.77472E-06   -0.73363E-06  1207   0.184E-03
   3 F= -.64432445E+03 E0= -.64426663E+03  d E =-.181555E+01
 curvature:  -0.33 expect dE=-0.249E+00 dE for cont linesearch -0.215E-03
 trial: gam= 0.12791 g(F)=  0.747E+00 g(S)=  0.000E+00 ort = 0.589E-01 (trialstep = 0.950E+00)
 search vector abs. value=  0.850E+00
 bond charge predicted
       N       E                     dE             d eps       ncg     rms          rms(c)
DAV:   1    -0.644660661309E+03   -0.33621E+00   -0.61300E+01  3616   0.785E+00    0.113E+00
RMM:   2    -0.644805453409E+03   -0.14479E+00   -0.16922E+00  3592   0.192E+00    0.578E-01
RMM:   3    -0.644821948179E+03   -0.16495E-01   -0.25715E-01  4183   0.740E-01    0.411E-01
RMM:   4    -0.644821832987E+03    0.11519E-03   -0.37185E-02  4123   0.289E-01    0.195E-01
RMM:   5    -0.644823411252E+03   -0.15783E-02   -0.13773E-02  4828   0.154E-01    0.179E-01
RMM:   6    -0.644823401172E+03    0.10080E-04   -0.55228E-03  4876   0.716E-02    0.698E-02
RMM:   7    -0.644823773891E+03   -0.37272E-03   -0.38546E-03  4800   0.585E-02    0.528E-02
RMM:   8    -0.644824110146E+03   -0.33625E-03   -0.21987E-03  5436   0.412E-02    0.478E-02
RMM:   9    -0.644824271165E+03   -0.16102E-03   -0.13667E-03  5070   0.268E-02    0.303E-02
RMM:  10    -0.644824565863E+03   -0.29470E-03   -0.13439E-03  5286   0.375E-02    0.371E-02
RMM:  11    -0.644824778661E+03   -0.21280E-03   -0.62321E-04  4940   0.225E-02    0.363E-02
RMM:  12    -0.644824818378E+03   -0.39718E-04   -0.49575E-04  4829   0.187E-02    0.219E-02
RMM:  13    -0.644824996046E+03   -0.17767E-03   -0.54471E-04  5467   0.253E-02    0.114E-02
RMM:  14    -0.644825107756E+03   -0.11171E-03   -0.26411E-04  4538   0.150E-02    0.901E-03
RMM:  15    -0.644825184137E+03   -0.76381E-04   -0.20470E-04  4637   0.125E-02    0.753E-03
RMM:  16    -0.644825257300E+03   -0.73163E-04   -0.20962E-04  4648   0.131E-02    0.774E-03
 num prob RMM:  17    -0.644825290159E+03   -0.32859E-04   -0.12374E-04  3607   0.884E-03    0.421E-03
 num prob  num prob  num prob  num prob  num prob  num prob  num prob RMM:  18    -0.644825309687E+03   -0.19528E-04   -0.10014E-04  2813   0.730E-03    0.307E-03
 num prob  num prob  num prob RMM:  19    -0.644825320323E+03   -0.10636E-04   -0.83319E-05  2705   0.652E-03    0.212E-03
 num prob  num prob  num prob RMM:  20    -0.644825339688E+03   -0.19366E-04   -0.68820E-05  2682   0.605E-03    0.162E-03
 num prob  num prob  num prob RMM:  21    -0.644825354492E+03   -0.14804E-04   -0.61394E-05  2606   0.545E-03    0.158E-03
 num prob  num prob  num prob  num prob  num prob RMM:  22    -0.644825365181E+03   -0.10689E-04   -0.51394E-05  2618   0.528E-03    0.135E-03
 num prob  num prob  num prob  num prob RMM:  23    -0.644825371002E+03   -0.58204E-05   -0.44096E-05  2406   0.462E-03    0.904E-04
 num prob  num prob  num prob  num prob RMM:  24    -0.644825375209E+03   -0.42068E-05   -0.38192E-05  1860   0.414E-03    0.817E-04
 num prob  num prob  num prob WARNING in EDDRMM: call to ZHEGV failed, returncode =   6  3     42
RMM:  25    -0.644825378724E+03   -0.35152E-05   -0.33623E-05  1767   0.387E-03    0.613E-04
 num prob  num prob  num prob RMM:  26    -0.644825381663E+03   -0.29391E-05   -0.29415E-05  1675   0.360E-03    0.576E-04
 num prob  num prob RMM:  27    -0.644825384261E+03   -0.25979E-05   -0.26142E-05  1585   0.338E-03    0.379E-04
 num prob  num prob  num prob RMM:  28    -0.644825386540E+03   -0.22790E-05   -0.23104E-05  1299   0.313E-03    0.937E-05
 num prob  num prob RMM:  29    -0.644825388556E+03   -0.20162E-05   -0.20598E-05  1257   0.296E-03    0.148E-04
 num prob RMM:  30    -0.644825390341E+03   -0.17850E-05   -0.18412E-05  1162   0.279E-03    0.235E-04
RMM:  31    -0.644825391930E+03   -0.15886E-05   -0.16475E-05  1098   0.265E-03    0.415E-04
 num prob RMM:  32    -0.644825393346E+03   -0.14163E-05   -0.14684E-05  1056   0.251E-03    0.676E-04
 num prob  num prob RMM:  33    -0.644825394608E+03   -0.12626E-05   -0.13116E-05  1007   0.238E-03    0.885E-04
 num prob RMM:  34    -0.644825395746E+03   -0.11379E-05   -0.11855E-05   974   0.227E-03    0.102E-03
 num prob RMM:  35    -0.644825396763E+03   -0.10163E-05   -0.10604E-05   959   0.217E-03    0.119E-03
RMM:  36    -0.644825397669E+03   -0.90654E-06   -0.94951E-06   926   0.207E-03
   4 F= -.64482540E+03 E0= -.64476809E+03  d E =-.500950E+00
 trial-energy change:   -0.500950  1 .order   -0.516556   -0.716214   -0.316898
 step:   1.7033(harm=  1.7033)  dis= 0.24512  next Energy=  -644.966750 (dE=-0.642E+00)
 bond charge predicted
       N       E                     dE             d eps       ncg     rms          rms(c)
DAV:   1    -0.644883216571E+03   -0.57820E-01   -0.38149E+01  3656   0.601E+00    0.862E-01
RMM:   2    -0.644973129431E+03   -0.89913E-01   -0.10360E+00  3584   0.145E+00    0.405E-01
RMM:   3    -0.644984895560E+03   -0.11766E-01   -0.16044E-01  4188   0.566E-01    0.303E-01
RMM:   4    -0.644985145813E+03   -0.25025E-03   -0.21466E-02  4146   0.214E-01    0.148E-01
RMM:   5    -0.644986330931E+03   -0.11851E-02   -0.91133E-03  4605   0.119E-01    0.143E-01
RMM:   6    -0.644986385417E+03   -0.54485E-04   -0.38484E-03  4827   0.582E-02    0.580E-02
RMM:   7    -0.644986689608E+03   -0.30419E-03   -0.32872E-03  4411   0.541E-02    0.534E-02
RMM:   8    -0.644986933373E+03   -0.24377E-03   -0.17001E-03  5213   0.363E-02    0.446E-02
RMM:   9    -0.644987051666E+03   -0.11829E-03   -0.11485E-03  4736   0.251E-02    0.249E-02
RMM:  10    -0.644987290499E+03   -0.23883E-03   -0.11395E-03  5231   0.336E-02    0.361E-02
RMM:  11    -0.644987451710E+03   -0.16121E-03   -0.49717E-04  4745   0.188E-02    0.359E-02
RMM:  12    -0.644987481985E+03   -0.30276E-04   -0.41285E-04  4635   0.173E-02    0.188E-02
RMM:  13    -0.644987601117E+03   -0.11913E-03   -0.31287E-04  4795   0.165E-02    0.132E-02
RMM:  14    -0.644987678063E+03   -0.76946E-04   -0.21368E-04  4929   0.124E-02    0.753E-03
 num prob WARNING in EDDRMM: call to ZHEGV failed, returncode =   8  4     14
RMM:  15    -0.644987737738E+03   -0.59675E-04   -0.15578E-04  3941   0.966E-03    0.693E-03
RMM:  16    -0.644987794273E+03   -0.56536E-04   -0.13631E-04  4130   0.962E-03    0.802E-03
RMM:  17    -0.644987810993E+03   -0.16720E-04   -0.89939E-05  3224   0.702E-03    0.437E-03
 num prob  num prob  num prob  num prob  num prob RMM:  18    -0.644987821115E+03   -0.10122E-04   -0.69943E-05  2540   0.575E-03    0.328E-03
RMM:  19    -0.644987831285E+03   -0.10170E-04   -0.57168E-05  2530   0.562E-03    0.231E-03
RMM:  20    -0.644987847218E+03   -0.15933E-04   -0.46778E-05  2513   0.495E-03    0.123E-03
RMM:  21    -0.644987856661E+03   -0.94423E-05   -0.39333E-05  2436   0.454E-03    0.132E-03
 num prob RMM:  22    -0.644987862537E+03   -0.58759E-05   -0.33157E-05  2247   0.404E-03    0.135E-03
RMM:  23    -0.644987866020E+03   -0.34830E-05   -0.28711E-05  1750   0.356E-03    0.685E-04
RMM:  24    -0.644987868911E+03   -0.28912E-05   -0.24763E-05  1658   0.331E-03    0.545E-04
RMM:  25    -0.644987871268E+03   -0.23577E-05   -0.21633E-05  1541   0.309E-03    0.605E-04
 num prob RMM:  26    -0.644987873174E+03   -0.19057E-05   -0.19078E-05  1370   0.289E-03    0.478E-04
RMM:  27    -0.644987874846E+03   -0.16714E-05   -0.16948E-05  1191   0.271E-03    0.430E-04
RMM:  28    -0.644987876323E+03   -0.14772E-05   -0.15109E-05  1071   0.257E-03    0.297E-04
RMM:  29    -0.644987877642E+03   -0.13189E-05   -0.13556E-05  1175   0.247E-03    0.240E-04
 num prob RMM:  30    -0.644987878803E+03   -0.11617E-05   -0.12135E-05   931   0.232E-03    0.289E-04
RMM:  31    -0.644987879844E+03   -0.10406E-05   -0.10922E-05   918   0.222E-03    0.355E-04
RMM:  32    -0.644987880788E+03   -0.94404E-06   -0.99427E-06   882   0.212E-03
   5 F= -.64498788E+03 E0= -.64493097E+03  d E =-.663433E+00
 curvature:  -0.96 expect dE=-0.173E+00 dE for cont linesearch -0.144E-01
 ZBRENT: increasing intervall
 opt :   3.2105  next Energy=  -644.825095 (dE=-0.501E+00)
 bond charge predicted
       N       E                     dE             d eps       ncg     rms          rms(c)
DAV:   1    -0.644515936480E+03    0.47194E+00   -0.15955E+02  3532   0.116E+01    0.169E+00
RMM:   2    -0.644875807137E+03   -0.35987E+00   -0.41093E+00  3580   0.266E+00    0.720E-01
RMM:   3    -0.644925448668E+03   -0.49642E-01   -0.61613E-01  4251   0.103E+00    0.550E-01
RMM:   4    -0.644928203916E+03   -0.27552E-02   -0.91083E-02  4470   0.384E-01    0.300E-01
RMM:   5    -0.644931527926E+03   -0.33240E-02   -0.30385E-02  4742   0.196E-01    0.253E-01
RMM:   6    -0.644931970145E+03   -0.44222E-03   -0.14161E-02  4967   0.102E-01    0.107E-01
RMM:   7    -0.644932834989E+03   -0.86484E-03   -0.89963E-03  5040   0.752E-02    0.728E-02
RMM:   8    -0.644933530329E+03   -0.69534E-03   -0.53488E-03  5637   0.537E-02    0.662E-02
RMM:   9    -0.644933959004E+03   -0.42868E-03   -0.32354E-03  5411   0.357E-02    0.477E-02
RMM:  10    -0.644934620923E+03   -0.66192E-03   -0.26081E-03  5418   0.464E-02    0.452E-02
RMM:  11    -0.644934970008E+03   -0.34909E-03   -0.14427E-03  5158   0.302E-02    0.470E-02
RMM:  12    -0.644935060105E+03   -0.90097E-04   -0.10661E-03  5166   0.233E-02    0.290E-02
RMM:  13    -0.644935448316E+03   -0.38821E-03   -0.12597E-03  5825   0.348E-02    0.224E-02
RMM:  14    -0.644935616650E+03   -0.16833E-03   -0.64008E-04  4759   0.204E-02    0.157E-02
RMM:  15    -0.644935751936E+03   -0.13529E-03   -0.56056E-04  5057   0.199E-02    0.117E-02
RMM:  16    -0.644935861882E+03   -0.10995E-03   -0.52477E-04  4718   0.184E-02    0.111E-02
 num prob  num prob RMM:  17    -0.644935924452E+03   -0.62570E-04   -0.34427E-04  4407   0.123E-02    0.585E-03
 num prob  num prob  num prob  num prob  num prob RMM:  18    -0.644935985564E+03   -0.61112E-04   -0.29519E-04  3259   0.103E-02    0.413E-03
 num prob  num prob  num prob  num prob RMM:  19    -0.644936027786E+03   -0.42222E-04   -0.25238E-04  2955   0.902E-03    0.341E-03
 num prob  num prob  num prob  num prob  num prob  num prob RMM:  20    -0.644936071972E+03   -0.44186E-04   -0.22108E-04  2856   0.832E-03    0.253E-03
 num prob  num prob  num prob  num prob  num prob RMM:  21    -0.644936111875E+03   -0.39903E-04   -0.19725E-04  2868   0.777E-03    0.287E-03
 num prob WARNING in EDDRMM: call to ZHEGV failed, returncode =   6  3     26
 num prob  num prob  num prob  num prob  num prob  num prob  num prob  num prob RMM:  22    -0.644936140849E+03   -0.28973E-04   -0.17709E-04  2755   0.738E-03    0.202E-03
 num prob  num prob RMM:  23    -0.644936157244E+03   -0.16396E-04   -0.15846E-04  2445   0.645E-03    0.983E-04
 num prob WARNING in EDDRMM: call to ZHEGV failed, returncode =   8  4     13
 num prob  num prob  num prob  num prob RMM:  24    -0.644936171467E+03   -0.14223E-04   -0.14363E-04  2022   0.586E-03    0.719E-04
 num prob  num prob  num prob RMM:  25    -0.644936184256E+03   -0.12788E-04   -0.13100E-04  1889   0.550E-03    0.340E-04
 num prob  num prob RMM:  26    -0.644936195688E+03   -0.11432E-04   -0.11977E-04  1850   0.516E-03    0.465E-04
 num prob RMM:  27    -0.644936206001E+03   -0.10313E-04   -0.10969E-04  1487   0.482E-03    0.542E-04
 num prob RMM:  28    -0.644936215447E+03   -0.94459E-05   -0.10082E-04  1345   0.455E-03    0.338E-04
 num prob  num prob  num prob  num prob RMM:  29    -0.644936224113E+03   -0.86666E-05   -0.92618E-05  1249   0.431E-03    0.215E-04
 num prob  num prob RMM:  30    -0.644936232054E+03   -0.79411E-05   -0.85291E-05  1220   0.411E-03    0.487E-05
RMM:  31    -0.644936239367E+03   -0.73126E-05   -0.78576E-05  1102   0.391E-03    0.202E-04
WARNING in EDDRMM: call to ZHEGV failed, returncode =   8  4     14
RMM:  32    -0.644936246103E+03   -0.67364E-05   -0.72479E-05  1050   0.374E-03    0.279E-04
 num prob  num prob RMM:  33    -0.644936252312E+03   -0.62090E-05   -0.66805E-05   983   0.358E-03    0.544E-04
 num prob  num prob  num prob RMM:  34    -0.644936258038E+03   -0.57251E-05   -0.61671E-05   938   0.343E-03    0.617E-04
RMM:  35    -0.644936263315E+03   -0.52776E-05   -0.56898E-05   924   0.330E-03    0.641E-04
WARNING in EDDRMM: call to ZHEGV failed, returncode =   8  4     15
RMM:  36    -0.644936268189E+03   -0.48739E-05   -0.52541E-05   893   0.317E-03    0.686E-04
 num prob  num prob RMM:  37    -0.644936272688E+03   -0.44991E-05   -0.48523E-05   854   0.305E-03    0.793E-04
WARNING in EDDRMM: call to ZHEGV failed, returncode =   8  4     16
 num prob  num prob RMM:  38    -0.644936276833E+03   -0.41452E-05   -0.44783E-05   861   0.294E-03    0.664E-04
 num prob RMM:  39    -0.644936280669E+03   -0.38358E-05   -0.41418E-05   826   0.283E-03    0.647E-04
RMM:  40    -0.644936284204E+03   -0.35347E-05   -0.38210E-05   814   0.273E-03    0.636E-04
 num prob RMM:  41    -0.644936287469E+03   -0.32656E-05   -0.35297E-05   792   0.264E-03    0.636E-04
 num prob  num prob RMM:  42    -0.644936290486E+03   -0.30163E-05   -0.32633E-05   776   0.255E-03    0.653E-04
 num prob RMM:  43    -0.644936293272E+03   -0.27864E-05   -0.30143E-05   759   0.247E-03    0.731E-04
 num prob RMM:  44    -0.644936295845E+03   -0.25733E-05   -0.27869E-05   753   0.239E-03    0.698E-04
 num prob RMM:  45    -0.644936298222E+03   -0.23764E-05   -0.25754E-05   732   0.232E-03    0.718E-04
 num prob RMM:  46    -0.644936300420E+03   -0.21978E-05   -0.23820E-05   728   0.225E-03    0.734E-04
 num prob RMM:  47    -0.644936302443E+03   -0.20238E-05   -0.21998E-05   738   0.218E-03    0.587E-04
 num prob RMM:  48    -0.644936304315E+03   -0.18719E-05   -0.20344E-05   727   0.212E-03    0.480E-04
 num prob  num prob RMM:  49    -0.644936306044E+03   -0.17283E-05   -0.18787E-05   714   0.206E-03    0.406E-04
 num prob RMM:  50    -0.644936307643E+03   -0.15994E-05   -0.17403E-05   699   0.200E-03    0.368E-04
 num prob RMM:  51    -0.644936309120E+03   -0.14768E-05   -0.16083E-05   715   0.195E-03    0.303E-04
 num prob  num prob RMM:  52    -0.644936310502E+03   -0.13821E-05   -0.15060E-05   692   0.189E-03    0.222E-04
 num prob RMM:  53    -0.644936311755E+03   -0.12534E-05   -0.13770E-05   688   0.184E-03    0.222E-04
 num prob  num prob RMM:  54    -0.644936312919E+03   -0.11641E-05   -0.12715E-05   687   0.179E-03    0.206E-04
 num prob RMM:  55    -0.644936313992E+03   -0.10730E-05   -0.11751E-05   696   0.175E-03    0.116E-04
RMM:  56    -0.644936314993E+03   -0.10006E-05   -0.10969E-05   690   0.170E-03    0.529E-05
 num prob  num prob RMM:  57    -0.644936315906E+03   -0.91293E-06   -0.10051E-05   669   0.166E-03    0.523E-05
 num prob RMM:  58    -0.644936316752E+03   -0.84620E-06   -0.93102E-06   665   0.162E-03
   6 F= -.64493632E+03 E0= -.64487999E+03  d E =-.611869E+00
 curvature:  10.86 expect dE= 0.664E+01 dE for cont linesearch  0.283E+00
 ZBRENT: bracketing found
 ZBRENT: interpolating
 opt :   2.3536  next Energy=  -645.024580 (dE=-0.700E+00)
 bond charge predicted
       N       E                     dE             d eps       ncg     rms          rms(c)
DAV:   1    -0.644889550886E+03    0.46765E-01   -0.49898E+01  3520   0.645E+00    0.923E-01
RMM:   2    -0.644993932685E+03   -0.10438E+00   -0.11958E+00  3566   0.150E+00    0.400E-01
RMM:   3    -0.645009624534E+03   -0.15692E-01   -0.18385E-01  4254   0.588E-01    0.304E-01
RMM:   4    -0.645010216607E+03   -0.59207E-03   -0.22174E-02  4539   0.204E-01    0.172E-01
RMM:   5    -0.645011820962E+03   -0.16044E-02   -0.10225E-02  4338   0.113E-01    0.159E-01
RMM:   6    -0.645012086365E+03   -0.26540E-03   -0.46197E-03  5043   0.641E-02    0.792E-02
RMM:   7    -0.645012202293E+03   -0.11593E-03   -0.32495E-03  4719   0.446E-02    0.433E-02
RMM:   8    -0.645012538613E+03   -0.33632E-03   -0.19754E-03  4992   0.345E-02    0.483E-02
RMM:   9    -0.645012767647E+03   -0.22903E-03   -0.11277E-03  5046   0.207E-02    0.338E-02
RMM:  10    -0.645013059136E+03   -0.29149E-03   -0.89046E-04  5160   0.248E-02    0.226E-02
RMM:  11    -0.645013400497E+03   -0.34136E-03   -0.52263E-04  5003   0.197E-02    0.348E-02
RMM:  12    -0.645013517848E+03   -0.11735E-03   -0.30907E-04  4663   0.121E-02    0.257E-02
RMM:  13    -0.645013597908E+03   -0.80060E-04   -0.27511E-04  5028   0.143E-02    0.142E-02
RMM:  14    -0.645013717770E+03   -0.11986E-03   -0.15208E-04  4822   0.100E-02    0.118E-02
RMM:  15    -0.645013949400E+03   -0.23163E-03   -0.17652E-04  4715   0.115E-02    0.109E-02
RMM:  16    -0.645014043299E+03   -0.93900E-04   -0.11301E-04  4463   0.896E-03    0.104E-02
RMM:  17    -0.645014065725E+03   -0.22426E-04   -0.60293E-05  3889   0.614E-03    0.598E-03
RMM:  18    -0.645014077312E+03   -0.11587E-04   -0.43642E-05  3618   0.562E-03    0.367E-03
RMM:  19    -0.645014091032E+03   -0.13720E-04   -0.27154E-05  2414   0.390E-03    0.294E-03
RMM:  20    -0.645014110845E+03   -0.19813E-04   -0.20995E-05  2539   0.329E-03    0.201E-03
RMM:  21    -0.645014125092E+03   -0.14247E-04   -0.16719E-05  2445   0.307E-03    0.166E-03
RMM:  22    -0.645014132373E+03   -0.72810E-05   -0.12112E-05  2211   0.250E-03    0.104E-03
RMM:  23    -0.645014137480E+03   -0.51065E-05   -0.96693E-06  1855   0.208E-03    0.916E-04
RMM:  24    -0.645014139007E+03   -0.15269E-05   -0.75351E-06  1485   0.173E-03    0.622E-04
RMM:  25    -0.645014139964E+03   -0.95730E-06   -0.63009E-06  1987   0.171E-03
   7 F= -.64501414E+03 E0= -.64495753E+03  d E =-.689692E+00
 curvature:  -1.41 expect dE=-0.445E+00 dE for cont linesearch -0.994E-03
 trial: gam= 0.56186 g(F)=  0.315E+00 g(S)=  0.000E+00 ort =-0.245E-01 (trialstep = 0.123E+01)
 search vector abs. value=  0.556E+00
 bond charge predicted
       N       E                     dE             d eps       ncg     rms          rms(c)
DAV:   1    -0.644777908350E+03    0.23623E+00   -0.10588E+02  3524   0.121E+01    0.145E+00
RMM:   2    -0.645079376371E+03   -0.30147E+00   -0.33426E+00  3583   0.258E+00    0.651E-01
RMM:   3    -0.645106266050E+03   -0.26890E-01   -0.39638E-01  4278   0.954E-01    0.435E-01
RMM:   4    -0.645107839715E+03   -0.15737E-02   -0.56800E-02  5080   0.353E-01    0.294E-01
RMM:   5    -0.645108136720E+03   -0.29701E-03   -0.20356E-02  4786   0.163E-01    0.153E-01
RMM:   6    -0.645108799350E+03   -0.66263E-03   -0.79161E-03  5449   0.862E-02    0.104E-01
RMM:   7    -0.645109188979E+03   -0.38963E-03   -0.46601E-03  5588   0.495E-02    0.587E-02
RMM:   8    -0.645109625874E+03   -0.43690E-03   -0.31584E-03  5558   0.430E-02    0.470E-02
RMM:   9    -0.645109945025E+03   -0.31915E-03   -0.18607E-03  5727   0.288E-02    0.433E-02
RMM:  10    -0.645110225269E+03   -0.28024E-03   -0.12802E-03  5499   0.239E-02    0.234E-02
WARNING in EDDRMM: call to ZHEGV failed, returncode =   6  3     65
RMM:  11    -0.645110540234E+03   -0.31496E-03   -0.81776E-04  5492   0.210E-02    0.184E-02
RMM:  12    -0.645110626616E+03   -0.86382E-04   -0.50466E-04  5377   0.143E-02    0.139E-02
RMM:  13    -0.645110703929E+03   -0.77313E-04   -0.34573E-04  5374   0.131E-02    0.779E-03
RMM:  14    -0.645110791821E+03   -0.87892E-04   -0.22579E-04  4920   0.105E-02    0.457E-03
 num prob  num prob  num prob  num prob  num prob  num prob  num prob  num prob  num prob  num prob  num prob  num prob  num prob  num prob  num prob  num prob  num prob  num prob  num prob  num prob  num prob  num prob RMM:  15    -0.645110821287E+03   -0.29466E-04   -0.14364E-04  3510   0.750E-03    0.358E-03
RMM:  16    -0.645110860768E+03   -0.39481E-04   -0.11134E-04  5008   0.847E-03    0.553E-03
RMM:  17    -0.645110874576E+03   -0.13808E-04   -0.71956E-05  4093   0.632E-03    0.301E-03
 num prob  num prob  num prob  num prob  num prob  num prob  num prob  num prob  num prob  num prob  num prob  num prob  num prob  num prob  num prob  num prob RMM:  18    -0.645110883785E+03   -0.92094E-05   -0.50573E-05  2750   0.502E-03    0.237E-03
RMM:  19    -0.645110892802E+03   -0.90165E-05   -0.37196E-05  2911   0.437E-03    0.294E-03
 num prob  num prob  num prob  num prob  num prob  num prob  num prob  num prob  num prob  num prob  num prob  num prob  num prob  num prob  num prob  num prob  num prob  num prob RMM:  20    -0.645110896833E+03   -0.40314E-05   -0.26200E-05  2349   0.349E-03    0.213E-03
RMM:  21    -0.645110900196E+03   -0.33628E-05   -0.20420E-05  2470   0.307E-03    0.223E-03
 num prob  num prob  num prob  num prob  num prob  num prob  num prob  num prob  num prob RMM:  22    -0.645110905707E+03   -0.55108E-05   -0.15322E-05  2337   0.296E-03    0.707E-04
 num prob  num prob RMM:  23    -0.645110908431E+03   -0.27243E-05   -0.12052E-05  2222   0.248E-03    0.785E-04
 num prob  num prob  num prob  num prob  num prob RMM:  24    -0.645110909760E+03   -0.13283E-05   -0.91388E-06  1709   0.208E-03    0.851E-04
 num prob  num prob  num prob  num prob  num prob RMM:  25    -0.645110911007E+03   -0.12477E-05   -0.76731E-06  1838   0.195E-03    0.530E-04
 num prob  num prob  num prob  num prob  num prob RMM:  26    -0.645110911737E+03   -0.73011E-06   -0.60568E-06  1346   0.170E-03
   8 F= -.64511091E+03 E0= -.64505391E+03  d E =-.967718E-01
 trial-energy change:   -0.096772  1 .order   -0.125173   -0.371011    0.120665
 step:   0.8355(harm=  0.9285)  dis= 0.10529  next Energy=  -645.131214 (dE=-0.117E+00)
 bond charge predicted
       N       E                     dE             d eps       ncg     rms          rms(c)
DAV:   1    -0.645095655921E+03    0.15255E-01   -0.10638E+01  3616   0.393E+00    0.468E-01
RMM:   2    -0.645127138402E+03   -0.31482E-01   -0.35236E-01  3593   0.843E-01    0.254E-01
RMM:   3    -0.645129800113E+03   -0.26617E-02   -0.42067E-02  4232   0.313E-01    0.187E-01
RMM:   4    -0.645129917756E+03   -0.11764E-03   -0.61841E-03  4717   0.121E-01    0.101E-01
RMM:   5    -0.645130163601E+03   -0.24585E-03   -0.22368E-03  4791   0.560E-02    0.459E-02
RMM:   6    -0.645130368408E+03   -0.20481E-03   -0.10664E-03  5123   0.312E-02    0.392E-02
RMM:   7    -0.645130465010E+03   -0.96601E-04   -0.62897E-04  5126   0.189E-02    0.181E-02
RMM:   8    -0.645130544729E+03   -0.79719E-04   -0.40160E-04  5239   0.142E-02    0.156E-02
WARNING in EDDRMM: call to ZHEGV failed, returncode =   6  3     82
WARNING in EDDRMM: call to ZHEGV failed, returncode =   8  4     59
RMM:   9    -0.645130603755E+03   -0.59026E-04   -0.24818E-04  4330   0.100E-02    0.152E-02
RMM:  10    -0.645130696009E+03   -0.92254E-04   -0.16838E-04  4277   0.887E-03    0.615E-03
RMM:  11    -0.645130800459E+03   -0.10445E-03   -0.12404E-04  4301   0.816E-03    0.316E-03
 num prob  num prob  num prob  num prob  num prob  num prob  num prob  num prob  num prob  num prob  num prob  num prob  num prob WARNING in EDDRMM: call to ZHEGV failed, returncode =   8  4     90
 num prob  num prob  num prob  num prob  num prob RMM:  12    -0.645130817183E+03   -0.16724E-04   -0.76611E-05  3002   0.537E-03    0.252E-03
RMM:  13    -0.645130854617E+03   -0.37434E-04   -0.54726E-05  3395   0.497E-03    0.241E-03
 num prob  num prob  num prob  num prob  num prob  num prob RMM:  14    -0.645130889689E+03   -0.35072E-04   -0.41962E-05  2965   0.442E-03    0.170E-03
 num prob  num prob  num prob  num prob RMM:  15    -0.645130904737E+03   -0.15048E-04   -0.28730E-05  2557   0.351E-03    0.102E-03
 num prob  num prob  num prob  num prob  num prob  num prob RMM:  16    -0.645130915413E+03   -0.10677E-04   -0.21301E-05  2532   0.319E-03    0.971E-04
 num prob  num prob  num prob  num prob  num prob RMM:  17    -0.645130919121E+03   -0.37074E-05   -0.15624E-05  2231   0.262E-03    0.558E-04
 num prob  num prob  num prob  num prob  num prob  num prob  num prob RMM:  18    -0.645130921565E+03   -0.24446E-05   -0.11373E-05  1976   0.213E-03    0.743E-04
 num prob  num prob  num prob  num prob  num prob RMM:  19    -0.645130924587E+03   -0.30212E-05   -0.92354E-06  1998   0.193E-03    0.104E-03
 num prob  num prob  num prob RMM:  20    -0.645130925899E+03   -0.13119E-05   -0.70989E-06  1538   0.162E-03    0.962E-04
 num prob  num prob  num prob  num prob RMM:  21    -0.645130926846E+03   -0.94716E-06   -0.56881E-06  1331   0.144E-03
   9 F= -.64513093E+03 E0= -.64507406E+03  d E =-.116787E+00
 curvature:  -0.77 expect dE=-0.145E+00 dE for cont linesearch -0.819E-07
 trial: gam= 0.57808 g(F)=  0.187E+00 g(S)=  0.000E+00 ort = 0.242E-03 (trialstep = 0.115E+01)
 search vector abs. value=  0.373E+00
 bond charge predicted
       N       E                     dE             d eps       ncg     rms          rms(c)
DAV:   1    -0.645163978069E+03   -0.33052E-01   -0.49413E+01  3540   0.664E+00    0.975E-01
RMM:   2    -0.645273293948E+03   -0.10932E+00   -0.12726E+00  3570   0.143E+00    0.370E-01
RMM:   3    -0.645285990478E+03   -0.12697E-01   -0.16502E-01  4193   0.553E-01    0.285E-01
RMM:   4    -0.645286941261E+03   -0.95078E-03   -0.22807E-02  4860   0.198E-01    0.214E-01
RMM:   5    -0.645287459275E+03   -0.51801E-03   -0.11254E-02  4070   0.102E-01    0.118E-01
RMM:   6    -0.645287932929E+03   -0.47365E-03   -0.47431E-03  4772   0.623E-02    0.672E-02
RMM:   7    -0.645288243744E+03   -0.31081E-03   -0.28497E-03  5100   0.353E-02    0.332E-02
RMM:   8    -0.645288502393E+03   -0.25865E-03   -0.18578E-03  4982   0.276E-02    0.381E-02
RMM:   9    -0.645288697462E+03   -0.19507E-03   -0.11904E-03  5358   0.206E-02    0.336E-02
RMM:  10    -0.645288891028E+03   -0.19357E-03   -0.78184E-04  4848   0.167E-02    0.180E-02
RMM:  11    -0.645289228183E+03   -0.33716E-03   -0.58107E-04  5340   0.210E-02    0.307E-02
RMM:  12    -0.645289294742E+03   -0.66559E-04   -0.31195E-04  4726   0.116E-02    0.234E-02
RMM:  13    -0.645289350641E+03   -0.55899E-04   -0.23311E-04  4716   0.113E-02    0.113E-02
RMM:  14    -0.645289489533E+03   -0.13889E-03   -0.19217E-04  5186   0.131E-02    0.129E-02
RMM:  15    -0.645289530839E+03   -0.41307E-04   -0.10288E-04  3851   0.782E-03    0.113E-02
RMM:  16    -0.645289545347E+03   -0.14507E-04   -0.92224E-05  4745   0.877E-03    0.672E-03
RMM:  17    -0.645289566671E+03   -0.21325E-04   -0.45803E-05  2978   0.517E-03    0.419E-03
 num prob RMM:  18    -0.645289581057E+03   -0.14385E-04   -0.32418E-05  2465   0.387E-03    0.356E-03
RMM:  19    -0.645289609454E+03   -0.28398E-04   -0.25728E-05  2679   0.391E-03    0.248E-03
RMM:  20    -0.645289623838E+03   -0.14383E-04   -0.21851E-05  2752   0.399E-03    0.263E-03
 num prob  num prob RMM:  21    -0.645289626603E+03   -0.27651E-05   -0.14999E-05  2262   0.300E-03    0.241E-03
RMM:  22    -0.645289629542E+03   -0.29397E-05   -0.11752E-05  2131   0.248E-03    0.103E-03
 num prob  num prob RMM:  23    -0.645289631277E+03   -0.17349E-05   -0.96508E-06  1694   0.214E-03    0.688E-04
RMM:  24    -0.645289632456E+03   -0.11787E-05   -0.83161E-06  1882   0.200E-03    0.525E-04
RMM:  25    -0.645289633629E+03   -0.11735E-05   -0.71525E-06  1557   0.183E-03    0.282E-04
RMM:  26    -0.645289634328E+03   -0.69836E-06   -0.62181E-06  1054   0.162E-03
  10 F= -.64528963E+03 E0= -.64523205E+03  d E =-.158707E+00
 trial-energy change:   -0.158707  1 .order   -0.159597   -0.215859   -0.103336
 step:   2.3207(harm=  2.2089)  dis= 0.23736  next Energy=  -645.341170 (dE=-0.210E+00)
 bond charge predicted
       N       E                     dE             d eps       ncg     rms          rms(c)
DAV:   1    -0.645219348888E+03    0.70285E-01   -0.51078E+01  3524   0.656E+00    0.983E-01
RMM:   2    -0.645325048814E+03   -0.10570E+00   -0.12301E+00  3563   0.141E+00    0.391E-01
RMM:   3    -0.645336305865E+03   -0.11257E-01   -0.15500E-01  4170   0.546E-01    0.285E-01
RMM:   4    -0.645337219102E+03   -0.91324E-03   -0.22121E-02  4719   0.198E-01    0.214E-01
RMM:   5    -0.645337674329E+03   -0.45523E-03   -0.10536E-02  4030   0.103E-01    0.116E-01
RMM:   6    -0.645338169642E+03   -0.49531E-03   -0.46033E-03  4689   0.630E-02    0.692E-02
RMM:   7    -0.645338494750E+03   -0.32511E-03   -0.27838E-03  4939   0.359E-02    0.331E-02
RMM:   8    -0.645338772781E+03   -0.27803E-03   -0.19731E-03  4806   0.278E-02    0.389E-02
RMM:   9    -0.645338981304E+03   -0.20852E-03   -0.12856E-03  5192   0.210E-02    0.339E-02
RMM:  10    -0.645339174854E+03   -0.19355E-03   -0.86475E-04  4736   0.161E-02    0.192E-02
RMM:  11    -0.645339522346E+03   -0.34749E-03   -0.68035E-04  5389   0.217E-02    0.326E-02
RMM:  12    -0.645339620359E+03   -0.98013E-04   -0.36244E-04  4673   0.125E-02    0.270E-02
RMM:  13    -0.645339659949E+03   -0.39591E-04   -0.24524E-04  4437   0.100E-02    0.150E-02
RMM:  14    -0.645339804074E+03   -0.14413E-03   -0.23081E-04  5453   0.149E-02    0.136E-02
RMM:  15    -0.645339844485E+03   -0.40410E-04   -0.11004E-04  3996   0.808E-03    0.117E-02
RMM:  16    -0.645339872056E+03   -0.27572E-04   -0.98265E-05  4833   0.908E-03    0.702E-03
RMM:  17    -0.645339876433E+03   -0.43772E-05   -0.45760E-05  2879   0.490E-03    0.473E-03
 num prob  num prob  num prob RMM:  18    -0.645339886071E+03   -0.96373E-05   -0.31377E-05  2392   0.361E-03    0.453E-03
RMM:  19    -0.645339923911E+03   -0.37841E-04   -0.26565E-05  2814   0.431E-03    0.306E-03
RMM:  20    -0.645339938230E+03   -0.14318E-04   -0.20902E-05  2698   0.384E-03    0.292E-03
 num prob  num prob  num prob  num prob RMM:  21    -0.645339941220E+03   -0.29901E-05   -0.14255E-05  2237   0.293E-03    0.260E-03
RMM:  22    -0.645339944322E+03   -0.31022E-05   -0.11276E-05  2196   0.250E-03    0.130E-03
 num prob  num prob  num prob RMM:  23    -0.645339946209E+03   -0.18866E-05   -0.91036E-06  1670   0.203E-03    0.904E-04
RMM:  24    -0.645339947364E+03   -0.11553E-05   -0.79036E-06  1762   0.188E-03    0.670E-04
RMM:  25    -0.645339948599E+03   -0.12354E-05   -0.69041E-06  2068   0.188E-03    0.475E-04
RMM:  26    -0.645339949326E+03   -0.72653E-06   -0.59260E-06  1090   0.154E-03
  11 F= -.64533995E+03 E0= -.64528151E+03  d E =-.209022E+00
 curvature:  -2.18 expect dE=-0.886E-01 dE for cont linesearch -0.144E-04
 trial: gam= 0.39499 g(F)=  0.407E-01 g(S)=  0.000E+00 ort =-0.157E-02 (trialstep = 0.139E+01)
 search vector abs. value=  0.978E-01
 bond charge predicted
       N       E                     dE             d eps       ncg     rms          rms(c)
DAV:   1    -0.645315335638E+03    0.24613E-01   -0.19493E+01  3624   0.527E+00    0.623E-01
RMM:   2    -0.645365316342E+03   -0.49981E-01   -0.55536E-01  3557   0.107E+00    0.266E-01
RMM:   3    -0.645369212605E+03   -0.38963E-02   -0.64870E-02  4138   0.404E-01    0.191E-01
RMM:   4    -0.645369691394E+03   -0.47879E-03   -0.10424E-02  4921   0.154E-01    0.145E-01
RMM:   5    -0.645369956364E+03   -0.26497E-03   -0.41162E-03  4393   0.695E-02    0.887E-02
RMM:   6    -0.645370104610E+03   -0.14825E-03   -0.17142E-03  4998   0.406E-02    0.428E-02
RMM:   7    -0.645370236537E+03   -0.13193E-03   -0.96444E-04  5350   0.233E-02    0.255E-02
RMM:   8    -0.645370332086E+03   -0.95549E-04   -0.63570E-04  5151   0.183E-02    0.215E-02
WARNING in EDDRMM: call to ZHEGV failed, returncode =   6  3     76
RMM:   9    -0.645370409325E+03   -0.77239E-04   -0.39300E-04  5182   0.139E-02    0.187E-02
WARNING in EDDRMM: call to ZHEGV failed, returncode =   6  3     73
RMM:  10    -0.645370491501E+03   -0.82176E-04   -0.26303E-04  4747   0.115E-02    0.966E-03
RMM:  11    -0.645370580731E+03   -0.89230E-04   -0.16402E-04  4742   0.102E-02    0.105E-02
WARNING in EDDRMM: call to ZHEGV failed, returncode =   6  3     98
RMM:  12    -0.645370606595E+03   -0.25864E-04   -0.10501E-04  3324   0.684E-03    0.682E-03
RMM:  13    -0.645370630451E+03   -0.23856E-04   -0.76061E-05  4189   0.671E-03    0.346E-03
RMM:  14    -0.645370656326E+03   -0.25875E-04   -0.51918E-05  3164   0.548E-03    0.393E-03
RMM:  15    -0.645370678021E+03   -0.21694E-04   -0.37690E-05  2933   0.450E-03    0.253E-03
RMM:  16    -0.645370692561E+03   -0.14540E-04   -0.32301E-05  3573   0.490E-03    0.400E-03
RMM:  17    -0.645370696158E+03   -0.35973E-05   -0.19310E-05  2395   0.313E-03    0.212E-03
RMM:  18    -0.645370698585E+03   -0.24263E-05   -0.14583E-05  2291   0.280E-03    0.987E-04
RMM:  19    -0.645370701962E+03   -0.33778E-05   -0.11923E-05  2268   0.277E-03    0.123E-03
RMM:  20    -0.645370704992E+03   -0.30297E-05   -0.89462E-06  2133   0.206E-03    0.127E-03
RMM:  21    -0.645370706505E+03   -0.15127E-05   -0.74776E-06  2121   0.182E-03    0.128E-03
RMM:  22    -0.645370707727E+03   -0.12221E-05   -0.62906E-06  1944   0.165E-03    0.805E-04
RMM:  23    -0.645370708708E+03   -0.98092E-06   -0.53503E-06  1208   0.137E-03
  12 F= -.64537071E+03 E0= -.64531200E+03  d E =-.307594E-01
 trial-energy change:   -0.030759  1 .order   -0.031722   -0.055568   -0.007876
 step:   1.6527(harm=  1.6141)  dis= 0.07588  next Energy=  -645.371462 (dE=-0.315E-01)
 bond charge predicted
       N       E                     dE             d eps       ncg     rms          rms(c)
DAV:   1    -0.645369207028E+03    0.15007E-02   -0.72181E-01  3864   0.101E+00    0.121E-01
RMM:   2    -0.645371106711E+03   -0.18997E-02   -0.20996E-02  3567   0.207E-01    0.533E-02
RMM:   3    -0.645371257910E+03   -0.15120E-03   -0.23946E-03  4152   0.777E-02    0.380E-02
RMM:   4    -0.645371287325E+03   -0.29415E-04   -0.39766E-04  4860   0.300E-02    0.285E-02
RMM:   5    -0.645371309704E+03   -0.22379E-04   -0.14794E-04  4372   0.133E-02    0.161E-02
RMM:   6    -0.645371322908E+03   -0.13204E-04   -0.69543E-05  4114   0.806E-03    0.882E-03
RMM:   7    -0.645371331902E+03   -0.89934E-05   -0.39455E-05  2991   0.500E-03    0.478E-03
RMM:   8    -0.645371337528E+03   -0.56261E-05   -0.26115E-05  2553   0.373E-03    0.415E-03
RMM:   9    -0.645371342006E+03   -0.44785E-05   -0.16575E-05  2354   0.305E-03    0.378E-03
RMM:  10    -0.645371347751E+03   -0.57448E-05   -0.11059E-05  2246   0.237E-03    0.181E-03
 num prob RMM:  11    -0.645371354217E+03   -0.64657E-05   -0.72540E-06  2220   0.214E-03    0.199E-03
 num prob RMM:  12    -0.645371355963E+03   -0.17467E-05   -0.47317E-06  1658   0.159E-03    0.839E-04
 num prob RMM:  13    -0.645371357527E+03   -0.15635E-05   -0.33633E-06  1565   0.137E-03    0.563E-04
RMM:  14    -0.645371360132E+03   -0.26054E-05   -0.26765E-06  1914   0.137E-03    0.793E-04
 num prob RMM:  15    -0.645371361573E+03   -0.14404E-05   -0.20734E-06  1721   0.122E-03    0.532E-04
RMM:  16    -0.645371361808E+03   -0.23516E-06   -0.13535E-06  1107   0.942E-04
  13 F= -.64537136E+03 E0= -.64531260E+03  d E =-.314125E-01
 curvature:  -1.91 expect dE=-0.951E-01 dE for cont linesearch -0.345E-05
 trial: gam= 1.29242 g(F)=  0.498E-01 g(S)=  0.000E+00 ort =-0.420E-03 (trialstep = 0.664E+00)
 search vector abs. value=  0.212E+00
 bond charge predicted
       N       E                     dE             d eps       ncg     rms          rms(c)
DAV:   1    -0.645376128170E+03   -0.47666E-02   -0.77811E+00  3580   0.317E+00    0.393E-01
RMM:   2    -0.645393781689E+03   -0.17654E-01   -0.20216E-01  3568   0.639E-01    0.172E-01
RMM:   3    -0.645395292368E+03   -0.15107E-02   -0.24132E-02  4214   0.239E-01    0.133E-01
RMM:   4    -0.645395426688E+03   -0.13432E-03   -0.33988E-03  4410   0.885E-02    0.981E-02
RMM:   5    -0.645395564382E+03   -0.13769E-03   -0.16762E-03  3818   0.484E-02    0.537E-02
RMM:   6    -0.645395652384E+03   -0.88001E-04   -0.72475E-04  4493   0.296E-02    0.314E-02
RMM:   7    -0.645395704035E+03   -0.51651E-04   -0.38763E-04  4499   0.150E-02    0.164E-02
RMM:   8    -0.645395751788E+03   -0.47753E-04   -0.27515E-04  4317   0.131E-02    0.160E-02
RMM:   9    -0.645395786483E+03   -0.34695E-04   -0.15571E-04  4605   0.887E-03    0.131E-02
RMM:  10    -0.645395829900E+03   -0.43417E-04   -0.10023E-04  3838   0.730E-03    0.725E-03
RMM:  11    -0.645395902680E+03   -0.72780E-04   -0.68301E-05  4180   0.733E-03    0.104E-02
RMM:  12    -0.645395923016E+03   -0.20336E-04   -0.38466E-05  2998   0.445E-03    0.751E-03
RMM:  13    -0.645395935400E+03   -0.12384E-04   -0.30648E-05  3588   0.451E-03    0.466E-03
RMM:  14    -0.645395967969E+03   -0.32569E-04   -0.26434E-05  3816   0.506E-03    0.553E-03
RMM:  15    -0.645395982124E+03   -0.14155E-04   -0.14392E-05  2775   0.326E-03    0.408E-03
RMM:  16    -0.645395989730E+03   -0.76059E-05   -0.15560E-05  3564   0.410E-03    0.227E-03
RMM:  17    -0.645395991512E+03   -0.17821E-05   -0.49161E-06  2156   0.186E-03    0.148E-03
RMM:  18    -0.645395993248E+03   -0.17355E-05   -0.37899E-06  2096   0.174E-03    0.114E-03
RMM:  19    -0.645395999606E+03   -0.63578E-05   -0.34299E-06  2188   0.188E-03    0.145E-03
RMM:  20    -0.645396001692E+03   -0.20864E-05   -0.21554E-06  2018   0.132E-03    0.114E-03
RMM:  21    -0.645396002306E+03   -0.61397E-06   -0.15936E-06  1993   0.115E-03
  14 F= -.64539600E+03 E0= -.64533706E+03  d E =-.246405E-01
 trial-energy change:   -0.024640  1 .order   -0.024862   -0.032655   -0.017070
 step:   1.5754(harm=  1.3904)  dis= 0.09590  next Energy=  -645.407155 (dE=-0.358E-01)
 bond charge predicted
       N       E                     dE             d eps       ncg     rms          rms(c)
DAV:   1    -0.645367501819E+03    0.28500E-01   -0.14723E+01  3564   0.435E+00    0.545E-01
RMM:   2    -0.645400856628E+03   -0.33355E-01   -0.38286E-01  3566   0.876E-01    0.242E-01
RMM:   3    -0.645403567945E+03   -0.27113E-02   -0.45442E-02  4224   0.328E-01    0.188E-01
RMM:   4    -0.645403736685E+03   -0.16874E-03   -0.60956E-03  4368   0.119E-01    0.138E-01
RMM:   5    -0.645403910069E+03   -0.17338E-03   -0.31465E-03  3785   0.674E-02    0.708E-02
RMM:   6    -0.645404071149E+03   -0.16108E-03   -0.13441E-03  4456   0.409E-02    0.448E-02
RMM:   7    -0.645404152939E+03   -0.81790E-04   -0.71710E-04  4471   0.208E-02    0.223E-02
RMM:   8    -0.645404232599E+03   -0.79660E-04   -0.51255E-04  4319   0.183E-02    0.218E-02
RMM:   9    -0.645404289189E+03   -0.56590E-04   -0.28501E-04  4966   0.120E-02    0.181E-02
RMM:  10    -0.645404356763E+03   -0.67574E-04   -0.18313E-04  4094   0.978E-03    0.100E-02
RMM:  11    -0.645404473693E+03   -0.11693E-03   -0.12561E-04  4493   0.100E-02    0.145E-02
RMM:  12    -0.645404504685E+03   -0.30991E-04   -0.70221E-05  3550   0.597E-03    0.105E-02
RMM:  13    -0.645404523242E+03   -0.18557E-04   -0.54354E-05  4112   0.585E-03    0.639E-03
RMM:  14    -0.645404574753E+03   -0.51511E-04   -0.50361E-05  4574   0.710E-03    0.774E-03
RMM:  15    -0.645404595781E+03   -0.21029E-04   -0.25978E-05  3180   0.432E-03    0.596E-03
RMM:  16    -0.645404606049E+03   -0.10268E-04   -0.27680E-05  4252   0.543E-03    0.294E-03
RMM:  17    -0.645404609214E+03   -0.31648E-05   -0.89384E-06  2286   0.249E-03    0.192E-03
RMM:  18    -0.645404612436E+03   -0.32219E-05   -0.65347E-06  2165   0.227E-03    0.174E-03
RMM:  19    -0.645404623898E+03   -0.11462E-04   -0.58683E-06  2311   0.242E-03    0.198E-03
RMM:  20    -0.645404627261E+03   -0.33632E-05   -0.36579E-06  2146   0.177E-03    0.158E-03
RMM:  21    -0.645404628268E+03   -0.10067E-05   -0.26060E-06  2079   0.150E-03    0.148E-03
RMM:  22    -0.645404629444E+03   -0.11762E-05   -0.20420E-06  2033   0.140E-03    0.834E-04
RMM:  23    -0.645404629822E+03   -0.37815E-06   -0.13953E-06  1237   0.963E-04
  15 F= -.64540463E+03 E0= -.64534541E+03  d E =-.332680E-01
 curvature:  -2.80 expect dE=-0.540E-01 dE for cont linesearch -0.498E-03
 ZBRENT: interpolating
 opt :   1.3997  next Energy=  -645.405169 (dE=-0.338E-01)
 bond charge predicted
       N       E                     dE             d eps       ncg     rms          rms(c)
DAV:   1    -0.645403538005E+03    0.10914E-02   -0.54462E-01  3816   0.837E-01    0.106E-01
RMM:   2    -0.645404833927E+03   -0.12959E-02   -0.14320E-02  3566   0.169E-01    0.453E-02
RMM:   3    -0.645404970319E+03   -0.13639E-03   -0.16889E-03  4179   0.635E-02    0.336E-02
RMM:   4    -0.645405014852E+03   -0.44533E-04   -0.28458E-04  4378   0.243E-02    0.258E-02
RMM:   5    -0.645405072481E+03   -0.57630E-04   -0.12294E-04  3721   0.123E-02    0.142E-02
RMM:   6    -0.645405095499E+03   -0.23017E-04   -0.56085E-05  3860   0.761E-03    0.796E-03
RMM:   7    -0.645405110882E+03   -0.15384E-04   -0.29269E-05  2744   0.404E-03    0.446E-03
RMM:   8    -0.645405123166E+03   -0.12284E-04   -0.21073E-05  2734   0.340E-03    0.426E-03
RMM:   9    -0.645405132543E+03   -0.93763E-05   -0.11898E-05  2199   0.253E-03    0.372E-03
RMM:  10    -0.645405148751E+03   -0.16208E-04   -0.83395E-06  2235   0.206E-03    0.176E-03
RMM:  11    -0.645405169849E+03   -0.21099E-04   -0.64362E-06  2358   0.207E-03    0.277E-03
RMM:  12    -0.645405180441E+03   -0.10591E-04   -0.38051E-06  2083   0.144E-03    0.194E-03
RMM:  13    -0.645405186455E+03   -0.60138E-05   -0.23573E-06  1996   0.120E-03    0.110E-03
RMM:  14    -0.645405200286E+03   -0.13832E-04   -0.37235E-06  2354   0.166E-03    0.145E-03
RMM:  15    -0.645405203916E+03   -0.36297E-05   -0.16401E-06  1889   0.112E-03    0.118E-03
RMM:  16    -0.645405205449E+03   -0.15331E-05   -0.10078E-06  1974   0.104E-03    0.589E-04
RMM:  17    -0.645405205869E+03   -0.41961E-06   -0.46380E-07  1625   0.771E-04
  16 F= -.64540521E+03 E0= -.64534604E+03  d E =-.338441E-01
 curvature:  -3.03 expect dE=-0.428E-01 dE for cont linesearch -0.171E-05
 trial: gam= 0.30492 g(F)=  0.141E-01 g(S)=  0.000E+00 ort =-0.346E-03 (trialstep = 0.811E+00)
 search vector abs. value=  0.336E-01
 bond charge predicted
       N       E                     dE             d eps       ncg     rms          rms(c)
DAV:   1    -0.645410509177E+03   -0.53037E-02   -0.15237E+00  3676   0.160E+00    0.181E-01
RMM:   2    -0.645414675950E+03   -0.41668E-02   -0.45153E-02  3553   0.321E-01    0.752E-02
RMM:   3    -0.645414996875E+03   -0.32092E-03   -0.53143E-03  4198   0.124E-01    0.578E-02
RMM:   4    -0.645415049089E+03   -0.52215E-04   -0.83039E-04  4848   0.463E-02    0.424E-02
RMM:   5    -0.645415097887E+03   -0.48797E-04   -0.33453E-04  4079   0.220E-02    0.247E-02
RMM:   6    -0.645415111589E+03   -0.13702E-04   -0.13129E-04  4725   0.126E-02    0.130E-02
RMM:   7    -0.645415120602E+03   -0.90133E-05   -0.74179E-05  3552   0.654E-03    0.759E-03
RMM:   8    -0.645415131319E+03   -0.10717E-04   -0.57896E-05  4037   0.655E-03    0.653E-03
WARNING in EDDRMM: call to ZHEGV failed, returncode =   6  3     60
RMM:   9    -0.645415138837E+03   -0.75184E-05   -0.29509E-05  2552   0.426E-03    0.605E-03
WARNING in EDDRMM: call to ZHEGV failed, returncode =   6  3     79
RMM:  10    -0.645415145004E+03   -0.61664E-05   -0.18998E-05  2517   0.309E-03    0.367E-03
RMM:  11    -0.645415153302E+03   -0.82984E-05   -0.13035E-05  2411   0.306E-03    0.265E-03
 num prob RMM:  12    -0.645415156783E+03   -0.34811E-05   -0.75897E-06  2203   0.215E-03    0.194E-03
RMM:  13    -0.645415157307E+03   -0.52339E-06   -0.50879E-06  2142   0.182E-03
  17 F= -.64541516E+03 E0= -.64535598E+03  d E =-.995144E-02
 ZBRENT: can't locate minimum, use default step
 trial-energy change:   -0.009951  1 .order   -0.009994   -0.011349   -0.008639
 step:   3.2432(harm=  3.3961)  dis= 0.05672  next Energy=  -645.428973 (dE=-0.238E-01)
 bond charge predicted
       N       E                     dE             d eps       ncg     rms          rms(c)
DAV:   1    -0.645386445728E+03    0.28711E-01   -0.13734E+01  3524   0.478E+00    0.549E-01
RMM:   2    -0.645423769800E+03   -0.37324E-01   -0.40728E-01  3549   0.959E-01    0.222E-01
RMM:   3    -0.645426482112E+03   -0.27123E-02   -0.47422E-02  4175   0.370E-01    0.173E-01
RMM:   4    -0.645426835749E+03   -0.35364E-03   -0.74384E-03  4810   0.140E-01    0.124E-01
RMM:   5    -0.645427114201E+03   -0.27845E-03   -0.28800E-03  4106   0.656E-02    0.744E-02
RMM:   6    -0.645427195040E+03   -0.80840E-04   -0.11199E-03  5036   0.369E-02    0.384E-02
RMM:   7    -0.645427254976E+03   -0.59936E-04   -0.63576E-04  5102   0.198E-02    0.211E-02
RMM:   8    -0.645427329057E+03   -0.74081E-04   -0.45933E-04  4740   0.180E-02    0.189E-02
RMM:   9    -0.645427379443E+03   -0.50386E-04   -0.24222E-04  4896   0.117E-02    0.170E-02
RMM:  10    -0.645427425271E+03   -0.45828E-04   -0.15552E-04  4134   0.840E-03    0.104E-02
RMM:  11    -0.645427478641E+03   -0.53370E-04   -0.10041E-04  4228   0.766E-03    0.659E-03
RMM:  12    -0.645427495662E+03   -0.17021E-04   -0.62222E-05  2934   0.527E-03    0.394E-03
RMM:  13    -0.645427509056E+03   -0.13393E-04   -0.40674E-05  3052   0.463E-03    0.313E-03
RMM:  14    -0.645427522882E+03   -0.13827E-04   -0.27397E-05  2748   0.411E-03    0.314E-03
RMM:  15    -0.645427534903E+03   -0.12021E-04   -0.17570E-05  2554   0.332E-03    0.292E-03
RMM:  16    -0.645427537557E+03   -0.26532E-05   -0.12323E-05  2452   0.304E-03    0.137E-03
RMM:  17    -0.645427541009E+03   -0.34523E-05   -0.85015E-06  2367   0.245E-03    0.273E-03
RMM:  18    -0.645427541790E+03   -0.78123E-06   -0.52113E-06  1967   0.170E-03
  18 F= -.64542754E+03 E0= -.64536835E+03  d E =-.223359E-01
 curvature:  -4.06 expect dE=-0.591E-01 dE for cont linesearch -0.418E-06
 trial: gam= 1.06512 g(F)=  0.145E-01 g(S)=  0.000E+00 ort =-0.588E-04 (trialstep = 0.830E+00)
 search vector abs. value=  0.525E-01
 bond charge predicted
       N       E                     dE             d eps       ncg     rms          rms(c)
DAV:   1    -0.645427676761E+03   -0.13575E-03   -0.20738E+00  3572   0.186E+00    0.227E-01
RMM:   2    -0.645434226267E+03   -0.65495E-02   -0.73553E-02  3551   0.406E-01    0.121E-01
RMM:   3    -0.645434619951E+03   -0.39368E-03   -0.84962E-03  4126   0.153E-01    0.886E-02
RMM:   4    -0.645434621247E+03   -0.12955E-05   -0.13213E-03  4324   0.602E-02    0.499E-02
RMM:   5    -0.645434665993E+03   -0.44747E-04   -0.45867E-04  3988   0.291E-02    0.371E-02
RMM:   6    -0.645434675913E+03   -0.99200E-05   -0.22092E-04  4174   0.173E-02    0.152E-02
RMM:   7    -0.645434692389E+03   -0.16475E-04   -0.11803E-04  4228   0.941E-03    0.939E-03
RMM:   8    -0.645434707593E+03   -0.15204E-04   -0.75075E-05  3839   0.646E-03    0.923E-03
RMM:   9    -0.645434717238E+03   -0.96456E-05   -0.44803E-05  2786   0.440E-03    0.709E-03
RMM:  10    -0.645434736248E+03   -0.19009E-04   -0.30565E-05  2785   0.407E-03    0.252E-03
RMM:  11    -0.645434749491E+03   -0.13243E-04   -0.20073E-05  2676   0.317E-03    0.368E-03
 num prob RMM:  12    -0.645434753716E+03   -0.42253E-05   -0.12582E-05  2174   0.222E-03    0.160E-03
RMM:  13    -0.645434771233E+03   -0.17517E-04   -0.11904E-05  2726   0.284E-03    0.252E-03
RMM:  14    -0.645434773762E+03   -0.25290E-05   -0.56755E-06  2015   0.171E-03    0.147E-03
RMM:  15    -0.645434775275E+03   -0.15131E-05   -0.36823E-06  1619   0.130E-03    0.901E-04
RMM:  16    -0.645434778827E+03   -0.35521E-05   -0.31218E-06  2153   0.149E-03    0.718E-04
RMM:  17    -0.645434779914E+03   -0.10869E-05   -0.17570E-06  1545   0.105E-03    0.484E-04
RMM:  18    -0.645434780792E+03   -0.87751E-06   -0.11781E-06  1179   0.871E-04
  19 F= -.64543478E+03 E0= -.64537548E+03  d E =-.723900E-02
 trial-energy change:   -0.007239  1 .order   -0.007250   -0.012016   -0.002484
 step:   1.0458(harm=  1.0458)  dis= 0.01886  next Energy=  -645.435115 (dE=-0.757E-02)
 bond charge predicted
       N       E                     dE             d eps       ncg     rms          rms(c)
DAV:   1    -0.645434583839E+03    0.19607E-03   -0.14077E-01  3704   0.486E-01    0.585E-02
RMM:   2    -0.645435028292E+03   -0.44445E-03   -0.49530E-03  3542   0.106E-01    0.315E-02
RMM:   3    -0.645435056039E+03   -0.27747E-04   -0.57629E-04  4085   0.402E-02    0.226E-02
RMM:   4    -0.645435058046E+03   -0.20070E-05   -0.92573E-05  4146   0.159E-02    0.130E-02
RMM:   5    -0.645435061984E+03   -0.39374E-05   -0.30606E-05  3437   0.758E-03    0.985E-03
RMM:   6    -0.645435063124E+03   -0.11403E-05   -0.14962E-05  2830   0.472E-03    0.371E-03
RMM:   7    -0.645435064557E+03   -0.14330E-05   -0.76186E-06  2294   0.264E-03    0.242E-03
RMM:   8    -0.645435065847E+03   -0.12895E-05   -0.48989E-06  2142   0.189E-03    0.234E-03
RMM:   9    -0.645435066691E+03   -0.84407E-06   -0.29485E-06  2036   0.140E-03
  20 F= -.64543507E+03 E0= -.64537573E+03  d E =-.752490E-02
 curvature:  -1.90 expect dE=-0.199E-01 dE for cont linesearch -0.830E-08
 trial: gam= 0.72003 g(F)=  0.105E-01 g(S)=  0.000E+00 ort =-0.152E-04 (trialstep = 0.873E+00)
 search vector abs. value=  0.377E-01
 bond charge predicted
       N       E                     dE             d eps       ncg     rms          rms(c)
DAV:   1    -0.645438173035E+03   -0.31072E-02   -0.13466E+00  3532   0.146E+00    0.173E-01
RMM:   2    -0.645441810751E+03   -0.36377E-02   -0.39793E-02  3542   0.313E-01    0.770E-02
RMM:   3    -0.645442166148E+03   -0.35540E-03   -0.50720E-03  4122   0.124E-01    0.546E-02
RMM:   4    -0.645442238266E+03   -0.72118E-04   -0.81648E-04  4535   0.483E-02    0.365E-02
RMM:   5    -0.645442272647E+03   -0.34381E-04   -0.26323E-04  4664   0.214E-02    0.230E-02
RMM:   6    -0.645442289638E+03   -0.16991E-04   -0.11208E-04  4570   0.108E-02    0.904E-03
RMM:   7    -0.645442301163E+03   -0.11525E-04   -0.66524E-05  4022   0.625E-03    0.704E-03
RMM:   8    -0.645442312232E+03   -0.11069E-04   -0.44403E-05  3614   0.505E-03    0.642E-03
RMM:   9    -0.645442319131E+03   -0.68984E-05   -0.25456E-05  2349   0.333E-03    0.508E-03
RMM:  10    -0.645442327705E+03   -0.85745E-05   -0.18336E-05  2604   0.327E-03    0.255E-03
RMM:  11    -0.645442333309E+03   -0.56038E-05   -0.10905E-05  2221   0.242E-03    0.267E-03
RMM:  12    -0.645442334992E+03   -0.16832E-05   -0.69255E-06  2071   0.166E-03    0.116E-03
RMM:  13    -0.645442337806E+03   -0.28132E-05   -0.52696E-06  2137   0.188E-03    0.938E-04
RMM:  14    -0.645442339200E+03   -0.13947E-05   -0.33010E-06  2045   0.149E-03    0.111E-03
RMM:  15    -0.645442339507E+03   -0.30658E-06   -0.20027E-06  1325   0.960E-04
  21 F= -.64544234E+03 E0= -.64538291E+03  d E =-.727282E-02
 trial-energy change:   -0.007273  1 .order   -0.007354   -0.009171   -0.005538
 step:   2.2031(harm=  2.2031)  dis= 0.03811  next Energy=  -645.446641 (dE=-0.116E-01)
 bond charge predicted
       N       E                     dE             d eps       ncg     rms          rms(c)
DAV:   1    -0.645436656294E+03    0.56829E-02   -0.31304E+00  3502   0.222E+00    0.267E-01
RMM:   2    -0.645445161843E+03   -0.85055E-02   -0.93564E-02  3543   0.478E-01    0.118E-01
RMM:   3    -0.645445969320E+03   -0.80748E-03   -0.11908E-02  4119   0.189E-01    0.837E-02
RMM:   4    -0.645446105882E+03   -0.13656E-03   -0.18866E-03  4578   0.736E-02    0.551E-02
RMM:   5    -0.645446181636E+03   -0.75754E-04   -0.61731E-04  4620   0.329E-02    0.370E-02
RMM:   6    -0.645446209766E+03   -0.28130E-04   -0.25826E-04  4914   0.168E-02    0.144E-02
RMM:   7    -0.645446231380E+03   -0.21614E-04   -0.14782E-04  4786   0.928E-03    0.106E-02
RMM:   8    -0.645446253884E+03   -0.22503E-04   -0.10154E-04  4554   0.768E-03    0.102E-02
RMM:   9    -0.645446268359E+03   -0.14476E-04   -0.58586E-05  3038   0.522E-03    0.778E-03
RMM:  10    -0.645446286074E+03   -0.17715E-04   -0.43873E-05  3704   0.527E-03    0.424E-03
RMM:  11    -0.645446296235E+03   -0.10161E-04   -0.24290E-05  2421   0.344E-03    0.373E-03
RMM:  12    -0.645446299707E+03   -0.34720E-05   -0.15710E-05  2236   0.239E-03    0.194E-03
RMM:  13    -0.645446304841E+03   -0.51341E-05   -0.11816E-05  2345   0.269E-03    0.118E-03
RMM:  14    -0.645446307330E+03   -0.24888E-05   -0.73783E-06  2146   0.211E-03    0.142E-03
RMM:  15    -0.645446308010E+03   -0.67966E-06   -0.45920E-06  1820   0.138E-03
  22 F= -.64544631E+03 E0= -.64538676E+03  d E =-.112413E-01
 curvature:  -3.96 expect dE=-0.181E-01 dE for cont linesearch -0.193E-05
 trial: gam= 0.46106 g(F)=  0.457E-02 g(S)=  0.000E+00 ort =-0.136E-03 (trialstep = 0.114E+01)
 search vector abs. value=  0.125E-01
 bond charge predicted
       N       E                     dE             d eps       ncg     rms          rms(c)
DAV:   1    -0.645447638584E+03   -0.13313E-02   -0.82983E-01  3572   0.115E+00    0.136E-01
RMM:   2    -0.645450037958E+03   -0.23994E-02   -0.25915E-02  3545   0.244E-01    0.634E-02
RMM:   3    -0.645450259433E+03   -0.22148E-03   -0.32424E-03  4124   0.954E-02    0.454E-02
RMM:   4    -0.645450301066E+03   -0.41633E-04   -0.47665E-04  4516   0.359E-02    0.278E-02
RMM:   5    -0.645450331773E+03   -0.30707E-04   -0.16176E-04  4260   0.160E-02    0.214E-02
RMM:   6    -0.645450346529E+03   -0.14756E-04   -0.75688E-05  3993   0.890E-03    0.685E-03
RMM:   7    -0.645450356569E+03   -0.10041E-04   -0.45935E-05  3378   0.510E-03    0.534E-03
 num prob RMM:   8    -0.645450362812E+03   -0.62426E-05   -0.26759E-05  2459   0.347E-03    0.466E-03
RMM:   9    -0.645450367829E+03   -0.50168E-05   -0.16674E-05  2225   0.254E-03    0.407E-03
RMM:  10    -0.645450373406E+03   -0.55773E-05   -0.10856E-05  2188   0.205E-03    0.198E-03
RMM:  11    -0.645450378463E+03   -0.50565E-05   -0.73442E-06  2225   0.201E-03    0.241E-03
RMM:  12    -0.645450379483E+03   -0.10200E-05   -0.44186E-06  1800   0.132E-03    0.108E-03
RMM:  13    -0.645450380701E+03   -0.12183E-05   -0.30286E-06  1715   0.114E-03    0.424E-04
RMM:  14    -0.645450382744E+03   -0.20430E-05   -0.23185E-06  1928   0.117E-03    0.721E-04
RMM:  15    -0.645450383125E+03   -0.38069E-06   -0.13812E-06  1186   0.844E-04
  23 F= -.64545038E+03 E0= -.64539075E+03  d E =-.407511E-02
 trial-energy change:   -0.004075  1 .order   -0.004140   -0.005136   -0.003143
 step:   2.9349(harm=  2.9349)  dis= 0.03318  next Energy=  -645.452926 (dE=-0.662E-02)
 bond charge predicted
       N       E                     dE             d eps       ncg     rms          rms(c)
DAV:   1    -0.645446211822E+03    0.41709E-02   -0.20677E+00  3536   0.182E+00    0.212E-01
RMM:   2    -0.645452046372E+03   -0.58346E-02   -0.63247E-02  3544   0.384E-01    0.100E-01
RMM:   3    -0.645452549858E+03   -0.50349E-03   -0.77926E-03  4126   0.150E-01    0.722E-02
RMM:   4    -0.645452630928E+03   -0.81070E-04   -0.11438E-03  4539   0.561E-02    0.446E-02
RMM:   5    -0.645452695070E+03   -0.64142E-04   -0.37880E-04  4356   0.249E-02    0.332E-02
RMM:   6    -0.645452724739E+03   -0.29669E-04   -0.17330E-04  4349   0.138E-02    0.111E-02
RMM:   7    -0.645452745112E+03   -0.20373E-04   -0.95900E-05  4212   0.742E-03    0.753E-03
RMM:   8    -0.645452762115E+03   -0.17004E-04   -0.61162E-05  3698   0.535E-03    0.714E-03
WARNING in EDDRMM: call to ZHEGV failed, returncode =   6  3     84
 num prob RMM:   9    -0.645452772250E+03   -0.10134E-04   -0.35490E-05  2483   0.364E-03    0.639E-03
RMM:  10    -0.645452787108E+03   -0.14858E-04   -0.22965E-05  2525   0.301E-03    0.284E-03
RMM:  11    -0.645452798579E+03   -0.11471E-04   -0.15092E-05  2570   0.281E-03    0.330E-03
 num prob RMM:  12    -0.645452800894E+03   -0.23153E-05   -0.88917E-06  2146   0.182E-03    0.132E-03
RMM:  13    -0.645452805214E+03   -0.43198E-05   -0.63902E-06  2179   0.183E-03    0.952E-04
 num prob  num prob RMM:  14    -0.645452807299E+03   -0.20850E-05   -0.38373E-06  1890   0.137E-03    0.102E-03
RMM:  15    -0.645452808313E+03   -0.10135E-05   -0.24601E-06  1474   0.105E-03    0.847E-04
RMM:  16    -0.645452809571E+03   -0.12584E-05   -0.19597E-06  1840   0.113E-03    0.779E-04
RMM:  17    -0.645452810098E+03   -0.52685E-06   -0.11690E-06  1764   0.920E-04
  24 F= -.64545281E+03 E0= -.64539304E+03  d E =-.650209E-02
 curvature:  -4.06 expect dE=-0.430E-01 dE for cont linesearch -0.412E-07
 trial: gam= 2.25372 g(F)=  0.106E-01 g(S)=  0.000E+00 ort = 0.113E-04 (trialstep = 0.252E+00)
 search vector abs. value=  0.740E-01
 bond charge predicted
       N       E                     dE             d eps       ncg     rms          rms(c)
DAV:   1    -0.645454384540E+03   -0.15750E-02   -0.24858E-01  3648   0.616E-01    0.738E-02
RMM:   2    -0.645455062290E+03   -0.67775E-03   -0.73392E-03  3553   0.129E-01    0.332E-02
RMM:   3    -0.645455126054E+03   -0.63763E-04   -0.88407E-04  4113   0.504E-02    0.237E-02
RMM:   4    -0.645455142388E+03   -0.16335E-04   -0.14208E-04  4403   0.194E-02    0.156E-02
RMM:   5    -0.645455151774E+03   -0.93855E-05   -0.48669E-05  3607   0.861E-03    0.109E-02
RMM:   6    -0.645455156908E+03   -0.51341E-05   -0.24096E-05  2970   0.509E-03    0.383E-03
RMM:   7    -0.645455160046E+03   -0.31381E-05   -0.13182E-05  2293   0.285E-03    0.282E-03
RMM:   8    -0.645455162828E+03   -0.27819E-05   -0.86881E-06  2173   0.211E-03    0.282E-03
RMM:   9    -0.645455164381E+03   -0.15532E-05   -0.51681E-06  2095   0.156E-03    0.232E-03
RMM:  10    -0.645455166827E+03   -0.24460E-05   -0.34750E-06  1842   0.133E-03    0.717E-04
RMM:  11    -0.645455167957E+03   -0.11303E-05   -0.21409E-06  1655   0.108E-03    0.956E-04
RMM:  12    -0.645455168309E+03   -0.35192E-06   -0.13392E-06  1099   0.817E-04
  25 F= -.64545517E+03 E0= -.64539538E+03  d E =-.235821E-02
 ZBRENT: can't locate minimum, use default step
 trial-energy change:   -0.002358  1 .order   -0.002384   -0.002684   -0.002084
 step:   1.0098(harm=  1.1288)  dis= 0.02766  next Energy=  -645.458812 (dE=-0.600E-02)
 bond charge predicted
       N       E                     dE             d eps       ncg     rms          rms(c)
DAV:   1    -0.645451681616E+03    0.34863E-02   -0.22410E+00  3534   0.185E+00    0.222E-01
RMM:   2    -0.645457732370E+03   -0.60508E-02   -0.66030E-02  3553   0.389E-01    0.992E-02
RMM:   3    -0.645458272362E+03   -0.53999E-03   -0.79400E-03  4134   0.151E-01    0.702E-02
RMM:   4    -0.645458378580E+03   -0.10622E-03   -0.12455E-03  4550   0.580E-02    0.485E-02
RMM:   5    -0.645458440622E+03   -0.62042E-04   -0.41658E-04  4022   0.251E-02    0.335E-02
RMM:   6    -0.645458472568E+03   -0.31946E-04   -0.20667E-04  4189   0.153E-02    0.124E-02
RMM:   7    -0.645458494935E+03   -0.22367E-04   -0.11300E-04  4099   0.822E-03    0.853E-03
RMM:   8    -0.645458515024E+03   -0.20089E-04   -0.73343E-05  3561   0.570E-03    0.865E-03
WARNING in EDDRMM: call to ZHEGV failed, returncode =   6  3     84
RMM:   9    -0.645458528030E+03   -0.13007E-04   -0.44067E-05  2603   0.414E-03    0.675E-03
RMM:  10    -0.645458550638E+03   -0.22608E-04   -0.29487E-05  2643   0.363E-03    0.223E-03
RMM:  11    -0.645458567334E+03   -0.16696E-04   -0.19073E-05  2519   0.294E-03    0.287E-03
 num prob RMM:  12    -0.645458572455E+03   -0.51214E-05   -0.11697E-05  2148   0.202E-03    0.123E-03
RMM:  13    -0.645458589759E+03   -0.17304E-04   -0.96694E-06  2403   0.223E-03    0.165E-03
RMM:  14    -0.645458595049E+03   -0.52899E-05   -0.55100E-06  1954   0.160E-03    0.120E-03
RMM:  15    -0.645458597017E+03   -0.19680E-05   -0.33806E-06  1581   0.122E-03    0.753E-04
RMM:  16    -0.645458600005E+03   -0.29884E-05   -0.27047E-06  1730   0.120E-03    0.870E-04
RMM:  17    -0.645458601182E+03   -0.11771E-05   -0.16648E-06  1579   0.995E-04    0.352E-04
RMM:  18    -0.645458601654E+03   -0.47164E-06   -0.10828E-06  1138   0.818E-04
  26 F= -.64545860E+03 E0= -.64539879E+03  d E =-.579156E-02
 curvature:  -3.86 expect dE=-0.156E-01 dE for cont linesearch -0.670E-04
 ZBRENT: extrapolating
 opt :   1.1305  next Energy=  -645.458670 (dE=-0.586E-02)
 bond charge predicted
       N       E                     dE             d eps       ncg     rms          rms(c)
DAV:   1    -0.645458482161E+03    0.11902E-03   -0.56706E-02  3688   0.295E-01    0.352E-02
RMM:   2    -0.645458636965E+03   -0.15480E-03   -0.16824E-03  3535   0.621E-02    0.157E-02
RMM:   3    -0.645458651973E+03   -0.15008E-04   -0.20502E-04  4072   0.242E-02    0.113E-02
RMM:   4    -0.645458655684E+03   -0.37104E-05   -0.33060E-05  3734   0.931E-03    0.790E-03
RMM:   5    -0.645458657569E+03   -0.18858E-05   -0.11952E-05  2683   0.432E-03    0.538E-03
RMM:   6    -0.645458658494E+03   -0.92501E-06   -0.61357E-06  2284   0.278E-03
  27 F= -.64545866E+03 E0= -.64539885E+03  d E =-.584840E-02
 curvature:  -3.93 expect dE=-0.195E-01 dE for cont linesearch -0.114E-05
 trial: gam= 0.48194 g(F)=  0.495E-02 g(S)=  0.000E+00 ort = 0.146E-03 (trialstep = 0.428E+00)
 search vector abs. value=  0.223E-01
 bond charge predicted
       N       E                     dE             d eps       ncg     rms          rms(c)
DAV:   1    -0.645459737372E+03   -0.10798E-02   -0.25291E-01  3652   0.615E-01    0.714E-02
RMM:   2    -0.645460396673E+03   -0.65930E-03   -0.70556E-03  3545   0.125E-01    0.301E-02
RMM:   3    -0.645460471591E+03   -0.74918E-04   -0.87517E-04  4122   0.483E-02    0.225E-02
RMM:   4    -0.645460497390E+03   -0.25799E-04   -0.13724E-04  4463   0.183E-02    0.165E-02
RMM:   5    -0.645460510801E+03   -0.13412E-04   -0.47216E-05  3749   0.784E-03    0.976E-03
RMM:   6    -0.645460523512E+03   -0.12711E-04   -0.24528E-05  2967   0.492E-03    0.419E-03
RMM:   7    -0.645460528495E+03   -0.49829E-05   -0.15039E-05  2290   0.289E-03    0.344E-03
RMM:   8    -0.645460533228E+03   -0.47330E-05   -0.99157E-06  2178   0.226E-03    0.268E-03
RMM:   9    -0.645460536940E+03   -0.37116E-05   -0.60386E-06  2047   0.168E-03    0.260E-03
RMM:  10    -0.645460541159E+03   -0.42188E-05   -0.40041E-06  1711   0.131E-03    0.158E-03
RMM:  11    -0.645460545770E+03   -0.46114E-05   -0.30768E-06  2099   0.138E-03    0.136E-03
RMM:  12    -0.645460546919E+03   -0.11486E-05   -0.17236E-06  1411   0.958E-04    0.905E-04
RMM:  13    -0.645460547398E+03   -0.47983E-06   -0.11121E-06  1002   0.758E-04
  28 F= -.64546055E+03 E0= -.64540073E+03  d E =-.188890E-02
 ZBRENT: can't locate minimum, use default step
 trial-energy change:   -0.001889  1 .order   -0.001937   -0.002148   -0.001726
 step:   1.7122(harm=  2.1804)  dis= 0.02362  next Energy=  -645.464128 (dE=-0.547E-02)
 bond charge predicted
       N       E                     dE             d eps       ncg     rms          rms(c)
DAV:   1    -0.645456811470E+03    0.37354E-02   -0.22802E+00  3550   0.185E+00    0.216E-01
RMM:   2    -0.645462723933E+03   -0.59125E-02   -0.64471E-02  3554   0.375E-01    0.922E-02
RMM:   3    -0.645463291661E+03   -0.56773E-03   -0.78276E-03  4139   0.144E-01    0.684E-02
RMM:   4    -0.645463412068E+03   -0.12041E-03   -0.11820E-03  4580   0.543E-02    0.435E-02
RMM:   5    -0.645463499833E+03   -0.87765E-04   -0.39058E-04  4278   0.231E-02    0.311E-02
RMM:   6    -0.645463546938E+03   -0.47105E-04   -0.19050E-04  4334   0.135E-02    0.123E-02
RMM:   7    -0.645463570245E+03   -0.23307E-04   -0.11599E-04  4067   0.764E-03    0.815E-03
RMM:   8    -0.645463592142E+03   -0.21897E-04   -0.73162E-05  3528   0.572E-03    0.772E-03
RMM:   9    -0.645463607137E+03   -0.14995E-04   -0.43635E-05  2466   0.398E-03    0.726E-03
RMM:  10    -0.645463625540E+03   -0.18403E-04   -0.27790E-05  2411   0.308E-03    0.450E-03
RMM:  11    -0.645463658601E+03   -0.33061E-04   -0.21565E-05  2923   0.366E-03    0.434E-03
RMM:  12    -0.645463665634E+03   -0.70329E-05   -0.11505E-05  2251   0.221E-03    0.244E-03
RMM:  13    -0.645463669123E+03   -0.34886E-05   -0.74655E-06  2100   0.176E-03    0.881E-04
RMM:  14    -0.645463675007E+03   -0.58840E-05   -0.52010E-06  2080   0.164E-03    0.103E-03
RMM:  15    -0.645463680127E+03   -0.51205E-05   -0.37166E-06  1961   0.142E-03    0.737E-04
RMM:  16    -0.645463680629E+03   -0.50211E-06   -0.20179E-06  1441   0.992E-04
  29 F= -.64546368E+03 E0= -.64540389E+03  d E =-.502213E-02
 curvature:  -4.49 expect dE=-0.707E-02 dE for cont linesearch -0.232E-03
 ZBRENT: extrapolating
 opt :   2.1776  next Energy=  -645.463930 (dE=-0.527E-02)
 bond charge predicted
       N       E                     dE             d eps       ncg     rms          rms(c)
DAV:   1    -0.645462960065E+03    0.72006E-03   -0.29935E-01  3604   0.669E-01    0.779E-02
RMM:   2    -0.645463730175E+03   -0.77011E-03   -0.83005E-03  3546   0.135E-01    0.331E-02
RMM:   3    -0.645463810780E+03   -0.80605E-04   -0.10083E-03  4127   0.523E-02    0.244E-02
RMM:   4    -0.645463835153E+03   -0.24373E-04   -0.15908E-04  4504   0.198E-02    0.156E-02
RMM:   5    -0.645463851027E+03   -0.15874E-04   -0.54969E-05  3847   0.854E-03    0.108E-02
RMM:   6    -0.645463859987E+03   -0.89608E-05   -0.27058E-05  3075   0.500E-03    0.427E-03
WARNING in EDDRMM: call to ZHEGV failed, returncode =   8  4     82
RMM:   7    -0.645463864509E+03   -0.45219E-05   -0.16166E-05  2312   0.293E-03    0.296E-03
RMM:   8    -0.645463869157E+03   -0.46473E-05   -0.10739E-05  2204   0.240E-03    0.290E-03
 num prob RMM:   9    -0.645463872201E+03   -0.30446E-05   -0.64368E-06  2103   0.179E-03    0.270E-03
RMM:  10    -0.645463876653E+03   -0.44518E-05   -0.42920E-06  1913   0.143E-03    0.120E-03
RMM:  11    -0.645463880138E+03   -0.34846E-05   -0.29407E-06  2101   0.136E-03    0.132E-03
RMM:  12    -0.645463880742E+03   -0.60457E-06   -0.16638E-06  1254   0.920E-04
  30 F= -.64546388E+03 E0= -.64540411E+03  d E =-.522225E-02
 curvature:  -4.83 expect dE=-0.982E-02 dE for cont linesearch -0.178E-06
 trial: gam= 0.36288 g(F)=  0.203E-02 g(S)=  0.000E+00 ort =-0.287E-04 (trialstep = 0.778E+00)
 search vector abs. value=  0.494E-02
 bond charge predicted
       N       E                     dE             d eps       ncg     rms          rms(c)
DAV:   1    -0.645464313928E+03   -0.43379E-03   -0.22468E-01  3672   0.526E-01    0.708E-02
RMM:   2    -0.645464903429E+03   -0.58950E-03   -0.64556E-03  3550   0.115E-01    0.328E-02
RMM:   3    -0.645464964214E+03   -0.60785E-04   -0.77048E-04  4191   0.437E-02    0.232E-02
RMM:   4    -0.645464983923E+03   -0.19710E-04   -0.12523E-04  4229   0.169E-02    0.129E-02
RMM:   5    -0.645465000383E+03   -0.16460E-04   -0.50236E-05  3658   0.820E-03    0.105E-02
RMM:   6    -0.645465008221E+03   -0.78377E-05   -0.26764E-05  2933   0.507E-03    0.393E-03
RMM:   7    -0.645465013368E+03   -0.51467E-05   -0.15856E-05  2359   0.301E-03    0.297E-03
RMM:   8    -0.645465018367E+03   -0.49989E-05   -0.10106E-05  2166   0.234E-03    0.298E-03
RMM:   9    -0.645465022091E+03   -0.37246E-05   -0.61625E-06  2084   0.171E-03    0.257E-03
RMM:  10    -0.645465030227E+03   -0.81355E-05   -0.45160E-06  2087   0.163E-03    0.865E-04
RMM:  11    -0.645465037513E+03   -0.72862E-05   -0.32865E-06  2016   0.146E-03    0.145E-03
RMM:  12    -0.645465038334E+03   -0.82094E-06   -0.16507E-06  1350   0.941E-04
  31 F= -.64546504E+03 E0= -.64540531E+03  d E =-.115759E-02
 trial-energy change:   -0.001158  1 .order   -0.001202   -0.001572   -0.000832
 step:   1.6525(harm=  1.6525)  dis= 0.00664  next Energy=  -645.465551 (dE=-0.167E-02)
 bond charge predicted
       N       E                     dE             d eps       ncg     rms          rms(c)
DAV:   1    -0.645464566374E+03    0.47114E-03   -0.28405E-01  3636   0.592E-01    0.793E-02
RMM:   2    -0.645465305314E+03   -0.73894E-03   -0.81122E-03  3555   0.129E-01    0.367E-02
RMM:   3    -0.645465378065E+03   -0.72751E-04   -0.95501E-04  4198   0.490E-02    0.260E-02
RMM:   4    -0.645465401082E+03   -0.23017E-04   -0.15974E-04  4308   0.191E-02    0.149E-02
RMM:   5    -0.645465419131E+03   -0.18050E-04   -0.62400E-05  3760   0.915E-03    0.118E-02
RMM:   6    -0.645465428781E+03   -0.96500E-05   -0.33451E-05  3157   0.567E-03    0.436E-03
RMM:   7    -0.645465435117E+03   -0.63358E-05   -0.19822E-05  2481   0.337E-03    0.357E-03
RMM:   8    -0.645465440860E+03   -0.57432E-05   -0.12533E-05  2211   0.258E-03    0.330E-03
RMM:   9    -0.645465445642E+03   -0.47811E-05   -0.76827E-06  2120   0.189E-03    0.282E-03
RMM:  10    -0.645465456447E+03   -0.10805E-04   -0.56804E-06  2175   0.185E-03    0.105E-03
RMM:  11    -0.645465466014E+03   -0.95668E-05   -0.41249E-06  2127   0.163E-03    0.182E-03
RMM:  12    -0.645465467839E+03   -0.18252E-05   -0.21344E-06  1487   0.105E-03    0.109E-03
RMM:  13    -0.645465475240E+03   -0.74006E-05   -0.25006E-06  1995   0.135E-03    0.819E-04
RMM:  14    -0.645465476802E+03   -0.15621E-05   -0.11946E-06  1682   0.972E-04    0.692E-04
RMM:  15    -0.645465477632E+03   -0.82987E-06   -0.71532E-07  1147   0.749E-04
  32 F= -.64546548E+03 E0= -.64540580E+03  d E =-.159689E-02
 curvature:  -2.02 expect dE=-0.641E-02 dE for cont linesearch -0.137E-06
 trial: gam= 1.52556 g(F)=  0.317E-02 g(S)=  0.000E+00 ort = 0.183E-04 (trialstep = 0.320E+00)
 search vector abs. value=  0.147E-01
 bond charge predicted
       N       E                     dE             d eps       ncg     rms          rms(c)
DAV:   1    -0.645465998097E+03   -0.52130E-03   -0.13196E-01  3648   0.407E-01    0.507E-02
RMM:   2    -0.645466322675E+03   -0.32458E-03   -0.34391E-03  3525   0.819E-02    0.216E-02
RMM:   3    -0.645466362039E+03   -0.39364E-04   -0.41002E-04  4174   0.313E-02    0.152E-02
RMM:   4    -0.645466375380E+03   -0.13340E-04   -0.65578E-05  4011   0.117E-02    0.898E-03
RMM:   5    -0.645466387817E+03   -0.12438E-04   -0.26544E-05  3041   0.531E-03    0.579E-03
RMM:   6    -0.645466392683E+03   -0.48655E-05   -0.13631E-05  2433   0.322E-03    0.291E-03
 num prob  num prob  num prob RMM:   7    -0.645466395152E+03   -0.24695E-05   -0.79583E-06  2116   0.204E-03    0.195E-03
RMM:   8    -0.645466397666E+03   -0.25142E-05   -0.55408E-06  2074   0.166E-03    0.184E-03
 num prob RMM:   9    -0.645466399366E+03   -0.16998E-05   -0.32726E-06  1715   0.128E-03    0.171E-03
RMM:  10    -0.645466401783E+03   -0.24165E-05   -0.22908E-06  1494   0.112E-03    0.555E-04
srun: Job step aborted: Waiting up to 32 seconds for job step to finish.
slurmstepd: error: *** JOB 67491723 ON i01r2n19 CANCELLED AT 2024-07-19T11:30:18 ***
