<?xml version="1.0" encoding="ISO-8859-1"?>
<modeling>
 <generator>
  <i name="program" type="string">vasp </i>
  <i name="version" type="string">6.3.2  </i>
  <i name="subversion" type="string">27Jun22 (build Mar 15 2023 15:45:48) complex                          parallel </i>
  <i name="platform" type="string">LinuxIFC </i>
  <i name="date" type="string">2024 07 19 </i>
  <i name="time" type="string">11:58:17 </i>
 </generator>
 <incar>
  <i type="string" name="SYSTEM">ni3al</i>
  <i type="int" name="ISTART">     0</i>
  <i type="string" name="PREC">Accurate</i>
  <i type="string" name="ALGO">Fast</i>
  <i name="AMIN">      0.01000000</i>
  <i type="int" name="ICHARG">     2</i>
  <i type="int" name="NELM">   150</i>
  <i type="int" name="IBRION">     1</i>
  <i name="EDIFF">      0.00000100</i>
  <i name="EDIFFG">     -0.01000000</i>
  <i type="int" name="NSW">   300</i>
  <i type="int" name="ISIF">     2</i>
  <i type="int" name="ISYM">     0</i>
  <i name="ENCUT">    530.00000000</i>
  <i type="string" name="LREAL">Auto</i>
  <i type="int" name="ISMEAR">     0</i>
  <i name="SIGMA">      0.10000000</i>
  <i type="int" name="LMAXMIX">     4</i>
  <i type="logical" name="LWAVE"> F  </i>
  <i type="logical" name="LCHARG"> F  </i>
 </incar>
 <primitive_cell>
  <structure name="primitive_cell" >
   <crystal>
    <varray name="basis" >
     <v>       9.28425000       0.00000000       0.00000000 </v>
     <v>       0.00000000      10.72053000       0.00000000 </v>
     <v>       0.00000000       0.00000000      19.49580000 </v>
    </varray>
    <i name="volume">   1940.45753799 </i>
    <varray name="rec_basis" >
     <v>       0.10770929       0.00000000       0.00000000 </v>
     <v>       0.00000000       0.09327897       0.00000000 </v>
     <v>       0.00000000       0.00000000       0.05129310 </v>
    </varray>
   </crystal>
   <varray name="positions" >
    <v>       0.00000000       0.00000000       0.00000000 </v>
    <v>       0.16666700       0.25000000       0.00000000 </v>
    <v>       0.00000000       0.00000000       0.38944500 </v>
    <v>       0.16666700       0.25000000       0.38944500 </v>
    <v>       0.00000000       0.16666600       0.13018000 </v>
    <v>       0.16666700       0.41666600       0.13018000 </v>
    <v>       0.00000000       0.33333400       0.25985200 </v>
    <v>       0.16666700       0.08333300       0.25985200 </v>
    <v>       0.33333300       0.00000000       0.00000000 </v>
    <v>       0.50000000       0.25000000       0.00000000 </v>
    <v>       0.33333300       0.00000000       0.38944500 </v>
    <v>       0.50000000       0.25000000       0.38944500 </v>
    <v>       0.33333300       0.16666600       0.13018000 </v>
    <v>       0.50000000       0.41666600       0.13018000 </v>
    <v>       0.33333300       0.33333400       0.25985200 </v>
    <v>       0.50000000       0.08333300       0.25985200 </v>
    <v>       0.66666700       0.00000000       0.00000000 </v>
    <v>       0.83333300       0.25000000       0.00000000 </v>
    <v>       0.66666700       0.00000000       0.38944500 </v>
    <v>       0.83333300       0.25000000       0.38944500 </v>
    <v>       0.66666700       0.16666600       0.13018000 </v>
    <v>       0.83333300       0.41666600       0.13018000 </v>
    <v>       0.66666700       0.33333400       0.25985200 </v>
    <v>       0.83333300       0.08333400       0.25985200 </v>
    <v>       0.00000000       0.50000000       0.00000000 </v>
    <v>       0.16666700       0.75000000       0.00000000 </v>
    <v>       0.00000000       0.50000000       0.38944500 </v>
    <v>       0.16666700       0.75000000       0.38944500 </v>
    <v>       0.00000000       0.66666600       0.13018000 </v>
    <v>       0.16666700       0.91666600       0.13018000 </v>
    <v>       0.00000000       0.83333400       0.25985200 </v>
    <v>       0.16666700       0.58333400       0.25985200 </v>
    <v>       0.33333300       0.50000000       0.00000000 </v>
    <v>       0.50000000       0.75000000       0.00000000 </v>
    <v>       0.33333300       0.50000000       0.38944500 </v>
    <v>       0.50000000       0.75000000       0.38944500 </v>
    <v>       0.33333300       0.66666600       0.13018000 </v>
    <v>       0.50000000       0.91666700       0.13018000 </v>
    <v>       0.33333300       0.83333400       0.25985200 </v>
    <v>       0.50000000       0.58333400       0.25985200 </v>
    <v>       0.66666700       0.50000000       0.00000000 </v>
    <v>       0.83333300       0.75000000       0.00000000 </v>
    <v>       0.66666700       0.50000000       0.38944500 </v>
    <v>       0.83333300       0.75000000       0.38944500 </v>
    <v>       0.66666700       0.66666600       0.13018000 </v>
    <v>       0.83333300       0.91666700       0.13018000 </v>
    <v>       0.66666700       0.83333400       0.25985200 </v>
    <v>       0.83333300       0.58333400       0.25985200 </v>
    <v>       0.17090945       0.73445765       0.55038769 </v>
    <v>       0.00000000       0.00000000       0.09762400 </v>
    <v>       0.16666700       0.25000000       0.09762400 </v>
    <v>       0.97509757       0.98975409       0.48651054 </v>
    <v>       0.16290199       0.25491351       0.48615200 </v>
    <v>       0.00000000       0.16666600       0.22753200 </v>
    <v>       0.16666700       0.41666600       0.22753200 </v>
    <v>       0.00000000       0.33333400       0.35720700 </v>
    <v>       0.16666700       0.08333300       0.35720700 </v>
    <v>       0.33333300       0.00000000       0.09762400 </v>
    <v>       0.50000000       0.25000000       0.09762400 </v>
    <v>       0.35398390       0.99179065       0.48610199 </v>
    <v>       0.49148346       0.25158573       0.48688550 </v>
    <v>       0.33333300       0.16666600       0.22753200 </v>
    <v>       0.50000000       0.41666600       0.22753200 </v>
    <v>       0.33333300       0.33333400       0.35720700 </v>
    <v>       0.50000000       0.08333300       0.35720700 </v>
    <v>       0.66666700       0.00000000       0.09762400 </v>
    <v>       0.83333300       0.25000000       0.09762400 </v>
    <v>       0.66900621       0.98630041       0.48633957 </v>
    <v>       0.84161702       0.25702906       0.48690091 </v>
    <v>       0.66666700       0.16666600       0.22753200 </v>
    <v>       0.83333300       0.41666600       0.22753200 </v>
    <v>       0.66666700       0.33333400       0.35720700 </v>
    <v>       0.83333300       0.08333400       0.35720700 </v>
    <v>       0.00000000       0.50000000       0.09762400 </v>
    <v>       0.16666700       0.75000000       0.09762400 </v>
    <v>       0.99133352       0.47528013       0.48633686 </v>
    <v>       0.16449305       0.82711873       0.48216158 </v>
    <v>       0.00000000       0.66666600       0.22753200 </v>
    <v>       0.16666700       0.91666600       0.22753200 </v>
    <v>       0.00000000       0.83333400       0.35720700 </v>
    <v>       0.16666700       0.58333400       0.35720700 </v>
    <v>       0.33333300       0.50000000       0.09762400 </v>
    <v>       0.50000000       0.75000000       0.09762400 </v>
    <v>       0.33222938       0.46889507       0.48693243 </v>
    <v>       0.52339312       0.76567129       0.48695799 </v>
    <v>       0.33333300       0.66666600       0.22753200 </v>
    <v>       0.50000000       0.91666700       0.22753200 </v>
    <v>       0.33333300       0.83333400       0.35720700 </v>
    <v>       0.50000000       0.58333400       0.35720700 </v>
    <v>       0.66666700       0.50000000       0.09762400 </v>
    <v>       0.83333300       0.75000000       0.09762400 </v>
    <v>       0.67885657       0.50224170       0.48691412 </v>
    <v>       0.81252352       0.75809790       0.48604610 </v>
    <v>       0.66666700       0.66666600       0.22753200 </v>
    <v>       0.83333300       0.91666700       0.22753200 </v>
    <v>       0.66666700       0.83333400       0.35720700 </v>
    <v>       0.83333300       0.58333400       0.35720700 </v>
    <v>       0.36221654       0.64219973       0.63829400 </v>
   </varray>
  </structure>
  <varray name="primitive_index" >
   <v type="int" >        1 </v>
   <v type="int" >        2 </v>
   <v type="int" >        3 </v>
   <v type="int" >        4 </v>
   <v type="int" >        5 </v>
   <v type="int" >        6 </v>
   <v type="int" >        7 </v>
   <v type="int" >        8 </v>
   <v type="int" >        9 </v>
   <v type="int" >       10 </v>
   <v type="int" >       11 </v>
   <v type="int" >       12 </v>
   <v type="int" >       13 </v>
   <v type="int" >       14 </v>
   <v type="int" >       15 </v>
   <v type="int" >       16 </v>
   <v type="int" >       17 </v>
   <v type="int" >       18 </v>
   <v type="int" >       19 </v>
   <v type="int" >       20 </v>
   <v type="int" >       21 </v>
   <v type="int" >       22 </v>
   <v type="int" >       23 </v>
   <v type="int" >       24 </v>
   <v type="int" >       25 </v>
   <v type="int" >       26 </v>
   <v type="int" >       27 </v>
   <v type="int" >       28 </v>
   <v type="int" >       29 </v>
   <v type="int" >       30 </v>
   <v type="int" >       31 </v>
   <v type="int" >       32 </v>
   <v type="int" >       33 </v>
   <v type="int" >       34 </v>
   <v type="int" >       35 </v>
   <v type="int" >       36 </v>
   <v type="int" >       37 </v>
   <v type="int" >       38 </v>
   <v type="int" >       39 </v>
   <v type="int" >       40 </v>
   <v type="int" >       41 </v>
   <v type="int" >       42 </v>
   <v type="int" >       43 </v>
   <v type="int" >       44 </v>
   <v type="int" >       45 </v>
   <v type="int" >       46 </v>
   <v type="int" >       47 </v>
   <v type="int" >       48 </v>
   <v type="int" >       49 </v>
   <v type="int" >       50 </v>
   <v type="int" >       51 </v>
   <v type="int" >       52 </v>
   <v type="int" >       53 </v>
   <v type="int" >       54 </v>
   <v type="int" >       55 </v>
   <v type="int" >       56 </v>
   <v type="int" >       57 </v>
   <v type="int" >       58 </v>
   <v type="int" >       59 </v>
   <v type="int" >       60 </v>
   <v type="int" >       61 </v>
   <v type="int" >       62 </v>
   <v type="int" >       63 </v>
   <v type="int" >       64 </v>
   <v type="int" >       65 </v>
   <v type="int" >       66 </v>
   <v type="int" >       67 </v>
   <v type="int" >       68 </v>
   <v type="int" >       69 </v>
   <v type="int" >       70 </v>
   <v type="int" >       71 </v>
   <v type="int" >       72 </v>
   <v type="int" >       73 </v>
   <v type="int" >       74 </v>
   <v type="int" >       75 </v>
   <v type="int" >       76 </v>
   <v type="int" >       77 </v>
   <v type="int" >       78 </v>
   <v type="int" >       79 </v>
   <v type="int" >       80 </v>
   <v type="int" >       81 </v>
   <v type="int" >       82 </v>
   <v type="int" >       83 </v>
   <v type="int" >       84 </v>
   <v type="int" >       85 </v>
   <v type="int" >       86 </v>
   <v type="int" >       87 </v>
   <v type="int" >       88 </v>
   <v type="int" >       89 </v>
   <v type="int" >       90 </v>
   <v type="int" >       91 </v>
   <v type="int" >       92 </v>
   <v type="int" >       93 </v>
   <v type="int" >       94 </v>
   <v type="int" >       95 </v>
   <v type="int" >       96 </v>
   <v type="int" >       97 </v>
   <v type="int" >       98 </v>
  </varray>
 </primitive_cell>
 <kpoints>
  <generation param="Gamma">
   <v type="int" name="divisions">       4        3        1 </v>
   <v name="usershift">      0.00000000       0.00000000       0.00000000 </v>
   <v name="genvec1">      0.25000000       0.00000000       0.00000000 </v>
   <v name="genvec2">      0.00000000       0.33333333       0.00000000 </v>
   <v name="genvec3">      0.00000000       0.00000000       1.00000000 </v>
   <v name="shift">      0.00000000       0.00000000       0.00000000 </v>
  </generation>
  <varray name="kpointlist" >
   <v>       0.00000000       0.00000000       0.00000000 </v>
   <v>       0.25000000       0.00000000       0.00000000 </v>
   <v>       0.50000000       0.00000000       0.00000000 </v>
   <v>       0.00000000       0.33333333       0.00000000 </v>
   <v>       0.25000000       0.33333333       0.00000000 </v>
   <v>       0.25000000      -0.33333333       0.00000000 </v>
   <v>       0.50000000       0.33333333       0.00000000 </v>
  </varray>
  <varray name="weights" >
   <v>       0.08333333 </v>
   <v>       0.16666667 </v>
   <v>       0.08333333 </v>
   <v>       0.16666667 </v>
   <v>       0.16666667 </v>
   <v>       0.16666667 </v>
   <v>       0.16666667 </v>
  </varray>
 </kpoints>
 <parameters>
  <separator name="general" >
   <i type="string" name="SYSTEM">ni3al</i>
   <i type="logical" name="LCOMPAT"> F  </i>
  </separator>
  <separator name="electronic" >
   <i type="string" name="PREC">accura</i>
   <i name="ENMAX">    530.00000000</i>
   <i name="ENAUG">    644.87300000</i>
   <i name="EDIFF">      0.00000100</i>
   <i type="int" name="IALGO">    68</i>
   <i type="int" name="IWAVPR">    11</i>
   <i type="int" name="NBANDS">   250</i>
   <i type="int" name="NBANDSLOW">    -1</i>
   <i type="int" name="NBANDSHIGH">    -1</i>
   <i name="NELECT">    400.00000000</i>
   <i type="int" name="TURBO">     0</i>
   <i type="int" name="IRESTART">     0</i>
   <i type="int" name="NREBOOT">     0</i>
   <i type="int" name="NMIN">     0</i>
   <i name="EREF">      0.00000000</i>
   <separator name="electronic smearing" >
    <i type="int" name="ISMEAR">     0</i>
    <i name="SIGMA">      0.10000000</i>
    <i name="KSPACING">      0.50000000</i>
    <i type="logical" name="KGAMMA"> T  </i>
    <i type="logical" name="KBLOWUP"> T  </i>
   </separator>
   <separator name="electronic projectors" >
    <i type="logical" name="LREAL"> T  </i>
    <v name="ROPT">     -0.00025000     -0.00025000     -0.00025000     -0.00025000</v>
    <i type="int" name="LMAXPAW">  -100</i>
    <i type="int" name="LMAXMIX">     4</i>
    <i type="logical" name="NLSPLINE"> F  </i>
   </separator>
   <separator name="electronic startup" >
    <i type="int" name="ISTART">     0</i>
    <i type="int" name="ICHARG">     2</i>
    <i type="int" name="INIWAV">     1</i>
   </separator>
   <separator name="electronic spin" >
    <i type="int" name="ISPIN">     1</i>
    <i type="logical" name="LNONCOLLINEAR"> F  </i>
    <v name="MAGMOM">      1.00000000      1.00000000      1.00000000      1.00000000      1.00000000      1.00000000      1.00000000      1.00000000      1.00000000      1.00000000      1.00000000      1.00000000      1.00000000      1.00000000      1.00000000      1.00000000      1.00000000      1.00000000      1.00000000      1.00000000
      1.00000000      1.00000000      1.00000000      1.00000000      1.00000000      1.00000000      1.00000000      1.00000000      1.00000000      1.00000000      1.00000000      1.00000000      1.00000000      1.00000000      1.00000000      1.00000000      1.00000000      1.00000000      1.00000000      1.00000000
      1.00000000      1.00000000      1.00000000      1.00000000      1.00000000      1.00000000      1.00000000      1.00000000      1.00000000      1.00000000      1.00000000      1.00000000      1.00000000      1.00000000      1.00000000      1.00000000      1.00000000      1.00000000      1.00000000      1.00000000
      1.00000000      1.00000000      1.00000000      1.00000000      1.00000000      1.00000000      1.00000000      1.00000000      1.00000000      1.00000000      1.00000000      1.00000000      1.00000000      1.00000000      1.00000000      1.00000000      1.00000000      1.00000000      1.00000000      1.00000000
      1.00000000      1.00000000      1.00000000      1.00000000      1.00000000      1.00000000      1.00000000      1.00000000      1.00000000      1.00000000      1.00000000      1.00000000      1.00000000      1.00000000      1.00000000      1.00000000      1.00000000      1.00000000</v>
    <i name="NUPDOWN">     -1.00000000</i>
    <i type="logical" name="LSORBIT"> F  </i>
    <v name="SAXIS">      0.00000000      0.00000000      1.00000000</v>
    <i type="logical" name="LSPIRAL"> F  </i>
    <v name="QSPIRAL">      0.00000000      0.00000000      0.00000000</v>
    <i type="logical" name="LZEROZ"> F  </i>
   </separator>
   <separator name="electronic exchange-correlation" >
    <i type="logical" name="LASPH"> F  </i>
    <i type="logical" name="LMETAGGA"> F  </i>
   </separator>
   <separator name="electronic convergence" >
    <i type="int" name="NELM">   150</i>
    <i type="int" name="NELMDL">    -5</i>
    <i type="int" name="NELMIN">     2</i>
    <i name="ENINI">    530.00000000</i>
    <separator name="electronic convergence detail" >
     <i type="logical" name="LDIAG"> T  </i>
     <i type="logical" name="LSUBROT"> F  </i>
     <i name="WEIMIN">      0.00100000</i>
     <i name="EBREAK">      0.00000000</i>
     <i name="DEPER">      0.30000000</i>
     <i type="int" name="NRMM">     4</i>
     <i name="TIME">      0.40000000</i>
    </separator>
   </separator>
   <separator name="electronic mixer" >
    <i name="AMIX">      0.40000000</i>
    <i name="BMIX">      1.00000000</i>
    <i name="AMIN">      0.01000000</i>
    <i name="AMIX_MAG">      1.60000000</i>
    <i name="BMIX_MAG">      1.00000000</i>
    <separator name="electronic mixer details" >
     <i type="int" name="IMIX">     4</i>
     <i type="logical" name="MIXFIRST"> F  </i>
     <i type="int" name="MAXMIX">   -45</i>
     <i name="WC">    100.00000000</i>
     <i type="int" name="INIMIX">     1</i>
     <i type="int" name="MIXPRE">     1</i>
     <i type="int" name="MREMOVE">     5</i>
    </separator>
   </separator>
   <separator name="electronic dipolcorrection" >
    <i type="logical" name="LDIPOL"> F  </i>
    <i type="logical" name="LMONO"> F  </i>
    <i type="int" name="IDIPOL">     0</i>
    <i name="EPSILON">      1.00000000</i>
    <v name="DIPOL">   -100.00000000   -100.00000000   -100.00000000</v>
    <i name="EFIELD">      0.00000000</i>
   </separator>
  </separator>
  <separator name="grids" >
   <i type="int" name="NGX">    70</i>
   <i type="int" name="NGY">    80</i>
   <i type="int" name="NGZ">   150</i>
   <i type="int" name="NGXF">   140</i>
   <i type="int" name="NGYF">   160</i>
   <i type="int" name="NGZF">   300</i>
   <i type="logical" name="ADDGRID"> F  </i>
  </separator>
  <separator name="ionic" >
   <i type="int" name="NSW">   300</i>
   <i type="int" name="IBRION">     1</i>
   <i type="int" name="MDALGO">     0</i>
   <i type="int" name="ISIF">     2</i>
   <i name="PSTRESS">      0.00000000</i>
   <i name="EDIFFG">     -0.01000000</i>
   <i type="int" name="NFREE">     0</i>
   <i name="POTIM">      0.50000000</i>
   <i name="SMASS">     -3.00000000</i>
   <i name="SCALEE">      1.00000000</i>
  </separator>
  <separator name="ionic md" >
   <i name="TEBEG">      0.00010000</i>
   <i name="TEEND">      0.00010000</i>
   <i type="int" name="NBLOCK">     1</i>
   <i type="int" name="KBLOCK">   300</i>
   <i type="int" name="NPACO">   256</i>
   <i name="APACO">     10.00000000</i>
  </separator>
  <separator name="symmetry" >
   <i type="int" name="ISYM">     0</i>
   <i name="SYMPREC">      0.00001000</i>
  </separator>
  <separator name="dos" >
   <i type="int" name="LORBIT">     0</i>
   <v name="RWIGS">     -1.00000000     -1.00000000     -1.00000000     -1.00000000</v>
   <i type="int" name="NEDOS">   301</i>
   <i name="EMIN">     10.00000000</i>
   <i name="EMAX">    -10.00000000</i>
   <i name="EFERMI">      0.00000000</i>
  </separator>
  <separator name="writing" >
   <i type="int" name="NWRITE">     2</i>
   <i type="logical" name="LWAVE"> F  </i>
   <i type="logical" name="LDOWNSAMPLE"> F  </i>
   <i type="logical" name="LCHARG"> F  </i>
   <i type="logical" name="LPARD"> F  </i>
   <i type="logical" name="LVTOT"> F  </i>
   <i type="logical" name="LVHAR"> F  </i>
   <i type="logical" name="LELF"> F  </i>
   <i type="logical" name="LOPTICS"> F  </i>
   <v name="STM">      0.00000000      0.00000000      0.00000000      0.00000000      0.00000000      0.00000000      0.00000000</v>
  </separator>
  <separator name="performance" >
   <i type="int" name="NPAR">     1</i>
   <i type="int" name="NSIM">     4</i>
   <i type="int" name="NBLK">    -1</i>
   <i type="logical" name="LPLANE"> T  </i>
   <i type="logical" name="LSCALAPACK"> T  </i>
   <i type="logical" name="LSCAAWARE"> F  </i>
   <i type="logical" name="LSCALU"> F  </i>
   <i type="logical" name="LASYNC"> F  </i>
   <i type="logical" name="LORBITALREAL"> F  </i>
  </separator>
  <separator name="miscellaneous" >
   <i type="int" name="IDIOT">     3</i>
   <i type="int" name="PHON_NSTRUCT">    -1</i>
   <i type="logical" name="LMUSIC"> F  </i>
   <v name="POMASS">     12.01100000     18.99800000     28.08500000     39.09800000</v>
   <v name="DARWINR">      0.00000000      0.00000000      0.00000000      0.00000000</v>
   <v name="DARWINV">      1.00000000      1.00000000      1.00000000      1.00000000</v>
   <i type="logical" name="LCORR"> T  </i>
  </separator>
  <i type="logical" name="GGA_COMPAT"> T  </i>
  <i type="logical" name="LBERRY"> F  </i>
  <i type="int" name="ICORELEVEL">     0</i>
  <i type="logical" name="LDAU"> F  </i>
  <i type="int" name="I_CONSTRAINED_M">     0</i>
  <separator name="electronic exchange-correlation" >
   <i type="string" name="GGA">--</i>
   <i type="int" name="VOSKOWN">     0</i>
   <i type="logical" name="LHFCALC"> F  </i>
   <i type="string" name="PRECFOCK"></i>
   <i type="logical" name="LSYMGRAD"> F  </i>
   <i type="logical" name="LHFONE"> F  </i>
   <i type="logical" name="LRHFCALC"> F  </i>
   <i type="logical" name="LTHOMAS"> F  </i>
   <i type="logical" name="LMODELHF"> F  </i>
   <i type="logical" name="LFOCKACE"> F  </i>
   <i name="ENCUT4O">     -1.00000000</i>
   <i type="int" name="EXXOEP">     0</i>
   <i type="int" name="FOURORBIT">     0</i>
   <i name="AEXX">      0.00000000</i>
   <i name="HFALPHA">      0.00000000</i>
   <i name="MCALPHA">      0.00000000</i>
   <i name="ALDAX">      1.00000000</i>
   <i name="AGGAX">      1.00000000</i>
   <i name="ALDAC">      1.00000000</i>
   <i name="AGGAC">      1.00000000</i>
   <i type="int" name="NKREDX">     1</i>
   <i type="int" name="NKREDY">     1</i>
   <i type="int" name="NKREDZ">     1</i>
   <i type="logical" name="SHIFTRED"> F  </i>
   <i type="logical" name="ODDONLY"> F  </i>
   <i type="logical" name="EVENONLY"> F  </i>
   <i type="int" name="LMAXFOCK">     0</i>
   <i type="int" name="NMAXFOCKAE">     0</i>
   <i type="logical" name="LFOCKAEDFT"> F  </i>
   <i name="HFSCREEN">      0.00000000</i>
   <i name="HFSCREENC">      0.00000000</i>
   <i type="int" name="NBANDSGWLOW">     0</i>
  </separator>
  <separator name="vdW DFT" >
   <i type="logical" name="LUSE_VDW"> F  </i>
   <i name="Zab_VDW">     -0.84910000</i>
   <i name="PARAM1">      0.12340000</i>
   <i name="PARAM2">      1.00000000</i>
   <i name="PARAM3">      0.00000000</i>
  </separator>
  <separator name="model GW" >
   <i type="int" name="MODEL_GW">     0</i>
   <i name="MODEL_EPS0">     11.88035227</i>
   <i name="MODEL_ALPHA">      1.00000000</i>
  </separator>
  <separator name="linear response parameters" >
   <i type="logical" name="LEPSILON"> F  </i>
   <i type="logical" name="LRPA"> F  </i>
   <i type="logical" name="LNABLA"> F  </i>
   <i type="logical" name="LVEL"> F  </i>
   <i name="CSHIFT">      0.10000000</i>
   <i name="OMEGAMAX">     -1.00000000</i>
   <i name="DEG_THRESHOLD">      0.00200000</i>
   <i name="RTIME">     -0.10000000</i>
   <i name="WPLASMAI">      0.00000000</i>
   <v name="DFIELD">      0.00000000      0.00000000      0.00000000</v>
   <v name="WPLASMA">      0.00000000      0.00000000      0.00000000      0.00000000      0.00000000      0.00000000      0.00000000      0.00000000      0.00000000</v>
  </separator>
  <separator name="orbital magnetization" >
   <i type="logical" name="NUCIND"> F  </i>
   <v name="MAGPOS">      0.00000000      0.00000000      0.00000000</v>
   <i type="logical" name="LNICSALL"> T  </i>
   <i type="logical" name="ORBITALMAG"> F  </i>
   <i type="logical" name="LMAGBLOCH"> F  </i>
   <i type="logical" name="LCHIMAG"> F  </i>
   <i type="logical" name="LGAUGE"> T  </i>
   <i type="int" name="MAGATOM">     0</i>
   <v name="MAGDIPOL">      0.00000000      0.00000000      0.00000000</v>
   <v name="AVECCONST">      0.00000000      0.00000000      0.00000000</v>
  </separator>
  <separator name="response functions" >
   <i type="logical" name="LFINITE_TEMPERATURE"> F  </i>
   <i type="logical" name="LADDER"> F  </i>
   <i type="logical" name="LRPAFORCE"> F  </i>
   <i type="logical" name="LFXC"> F  </i>
   <i type="logical" name="LHARTREE"> T  </i>
   <i type="int" name="IBSE">     0</i>
   <v type="int" name="KPOINT">    -1     0     0     0</v>
   <i type="logical" name="LTCTC"> F  </i>
   <i type="logical" name="LTCTE"> F  </i>
   <i type="logical" name="LTETE"> F  </i>
   <i type="logical" name="LTRIPLET"> F  </i>
   <i type="logical" name="LFXCEPS"> F  </i>
   <i type="logical" name="LFXHEG"> F  </i>
   <i type="int" name="NATURALO">     2</i>
   <i type="logical" name="LHOLEGF"> F  </i>
   <i type="logical" name="L2ORDER"> F  </i>
   <i type="logical" name="LDMP1"> F  </i>
   <i type="logical" name="LMP2LT"> F  </i>
   <i type="logical" name="LSMP2LT"> F  </i>
   <i type="logical" name="LGWLF"> F  </i>
   <i name="ENCUTGW">     -2.00000000</i>
   <i name="ENCUTGWSOFT">     -2.00000000</i>
   <i name="ENCUTLF">     -1.00000000</i>
   <i type="logical" name="LESF_SPLINES"> F  </i>
   <i type="int" name="LMAXMP2">    -1</i>
   <i name="SCISSOR">      0.00000000</i>
   <i type="int" name="NOMEGA">     0</i>
   <i type="int" name="NOMEGAR">     0</i>
   <i type="int" name="NBANDSGW">    -1</i>
   <i type="int" name="NBANDSO">    -1</i>
   <i type="int" name="NBANDSV">    -1</i>
   <i type="int" name="NELMGW">     1</i>
   <i type="int" name="NELMHF">     1</i>
   <i type="int" name="DIM">     3</i>
   <i type="int" name="IESPILON">     4</i>
   <i type="int" name="ANTIRES">     0</i>
   <i name="OMEGAMAX">    -30.00000000</i>
   <i name="OMEGAMIN">    -30.00000000</i>
   <i name="OMEGATL">   -200.00000000</i>
   <i type="int" name="OMEGAGRID">     0</i>
   <i name="CSHIFT">     -0.10000000</i>
   <i type="logical" name="LSELFENERGY"> F  </i>
   <i type="logical" name="LSPECTRAL"> F  </i>
   <i type="logical" name="LSPECTRALGW"> F  </i>
   <i type="logical" name="LSINGLES"> F  </i>
   <i type="logical" name="LFERMIGW"> F  </i>
   <i type="logical" name="ODDONLYGW"> F  </i>
   <i type="logical" name="EVENONLYGW"> F  </i>
   <i type="int" name="NKREDLFX">     1</i>
   <i type="int" name="NKREDLFY">     1</i>
   <i type="int" name="NKREDLFZ">     1</i>
   <i type="int" name="MAXMEM">  2800</i>
   <i type="int" name="TELESCOPE">     0</i>
   <i type="int" name="NTAUPAR">    -1</i>
   <i type="int" name="NOMEGAPAR">    -1</i>
   <i name="DAMP_NEWTON">      0.80000001</i>
   <i name="LAMBDA">      1.00000000</i>
  </separator>
  <separator name="External order field" >
   <i name="OFIELD_KAPPA">      0.00000000</i>
   <v name="OFIELD_K">      0.00000000      0.00000000      0.00000000</v>
   <i name="OFIELD_Q6_NEAR">      0.00000000</i>
   <i name="OFIELD_Q6_FAR">      0.00000000</i>
   <i name="OFIELD_A">      0.00000000</i>
  </separator>
  <separator name="optional k-points parameters" >
   <i type="int" name="KPOINTS_OPT_MODE">     1</i>
   <i type="logical" name="LKPOINTS_OPT"> F  </i>
  </separator>
  <separator name="solvation model" >
   <i type="logical" name="LSOL"> F  </i>
  </separator>
 </parameters>
 <atominfo>
  <atoms>      98 </atoms>
  <types>       4 </types>
  <array name="atoms" >
   <dimension dim="1">ion</dimension>
   <field type="string">element</field>
   <field type="int">atomtype</field>
   <set>
    <rc><c>C </c><c>   1</c></rc>
    <rc><c>C </c><c>   1</c></rc>
    <rc><c>C </c><c>   1</c></rc>
    <rc><c>C </c><c>   1</c></rc>
    <rc><c>C </c><c>   1</c></rc>
    <rc><c>C </c><c>   1</c></rc>
    <rc><c>C </c><c>   1</c></rc>
    <rc><c>C </c><c>   1</c></rc>
    <rc><c>C </c><c>   1</c></rc>
    <rc><c>C </c><c>   1</c></rc>
    <rc><c>C </c><c>   1</c></rc>
    <rc><c>C </c><c>   1</c></rc>
    <rc><c>C </c><c>   1</c></rc>
    <rc><c>C </c><c>   1</c></rc>
    <rc><c>C </c><c>   1</c></rc>
    <rc><c>C </c><c>   1</c></rc>
    <rc><c>C </c><c>   1</c></rc>
    <rc><c>C </c><c>   1</c></rc>
    <rc><c>C </c><c>   1</c></rc>
    <rc><c>C </c><c>   1</c></rc>
    <rc><c>C </c><c>   1</c></rc>
    <rc><c>C </c><c>   1</c></rc>
    <rc><c>C </c><c>   1</c></rc>
    <rc><c>C </c><c>   1</c></rc>
    <rc><c>C </c><c>   1</c></rc>
    <rc><c>C </c><c>   1</c></rc>
    <rc><c>C </c><c>   1</c></rc>
    <rc><c>C </c><c>   1</c></rc>
    <rc><c>C </c><c>   1</c></rc>
    <rc><c>C </c><c>   1</c></rc>
    <rc><c>C </c><c>   1</c></rc>
    <rc><c>C </c><c>   1</c></rc>
    <rc><c>C </c><c>   1</c></rc>
    <rc><c>C </c><c>   1</c></rc>
    <rc><c>C </c><c>   1</c></rc>
    <rc><c>C </c><c>   1</c></rc>
    <rc><c>C </c><c>   1</c></rc>
    <rc><c>C </c><c>   1</c></rc>
    <rc><c>C </c><c>   1</c></rc>
    <rc><c>C </c><c>   1</c></rc>
    <rc><c>C </c><c>   1</c></rc>
    <rc><c>C </c><c>   1</c></rc>
    <rc><c>C </c><c>   1</c></rc>
    <rc><c>C </c><c>   1</c></rc>
    <rc><c>C </c><c>   1</c></rc>
    <rc><c>C </c><c>   1</c></rc>
    <rc><c>C </c><c>   1</c></rc>
    <rc><c>C </c><c>   1</c></rc>
    <rc><c>F </c><c>   2</c></rc>
    <rc><c>Si</c><c>   3</c></rc>
    <rc><c>Si</c><c>   3</c></rc>
    <rc><c>Si</c><c>   3</c></rc>
    <rc><c>Si</c><c>   3</c></rc>
    <rc><c>Si</c><c>   3</c></rc>
    <rc><c>Si</c><c>   3</c></rc>
    <rc><c>Si</c><c>   3</c></rc>
    <rc><c>Si</c><c>   3</c></rc>
    <rc><c>Si</c><c>   3</c></rc>
    <rc><c>Si</c><c>   3</c></rc>
    <rc><c>Si</c><c>   3</c></rc>
    <rc><c>Si</c><c>   3</c></rc>
    <rc><c>Si</c><c>   3</c></rc>
    <rc><c>Si</c><c>   3</c></rc>
    <rc><c>Si</c><c>   3</c></rc>
    <rc><c>Si</c><c>   3</c></rc>
    <rc><c>Si</c><c>   3</c></rc>
    <rc><c>Si</c><c>   3</c></rc>
    <rc><c>Si</c><c>   3</c></rc>
    <rc><c>Si</c><c>   3</c></rc>
    <rc><c>Si</c><c>   3</c></rc>
    <rc><c>Si</c><c>   3</c></rc>
    <rc><c>Si</c><c>   3</c></rc>
    <rc><c>Si</c><c>   3</c></rc>
    <rc><c>Si</c><c>   3</c></rc>
    <rc><c>Si</c><c>   3</c></rc>
    <rc><c>Si</c><c>   3</c></rc>
    <rc><c>Si</c><c>   3</c></rc>
    <rc><c>Si</c><c>   3</c></rc>
    <rc><c>Si</c><c>   3</c></rc>
    <rc><c>Si</c><c>   3</c></rc>
    <rc><c>Si</c><c>   3</c></rc>
    <rc><c>Si</c><c>   3</c></rc>
    <rc><c>Si</c><c>   3</c></rc>
    <rc><c>Si</c><c>   3</c></rc>
    <rc><c>Si</c><c>   3</c></rc>
    <rc><c>Si</c><c>   3</c></rc>
    <rc><c>Si</c><c>   3</c></rc>
    <rc><c>Si</c><c>   3</c></rc>
    <rc><c>Si</c><c>   3</c></rc>
    <rc><c>Si</c><c>   3</c></rc>
    <rc><c>Si</c><c>   3</c></rc>
    <rc><c>Si</c><c>   3</c></rc>
    <rc><c>Si</c><c>   3</c></rc>
    <rc><c>Si</c><c>   3</c></rc>
    <rc><c>Si</c><c>   3</c></rc>
    <rc><c>Si</c><c>   3</c></rc>
    <rc><c>Si</c><c>   3</c></rc>
    <rc><c>K </c><c>   4</c></rc>
   </set>
  </array>
  <array name="atomtypes" >
   <dimension dim="1">type</dimension>
   <field type="int">atomspertype</field>
   <field type="string">element</field>
   <field>mass</field>
   <field>valence</field>
   <field type="string">pseudopotential</field>
   <set>
    <rc><c>  48</c><c>C </c><c>     12.01100000</c><c>      4.00000000</c><c> PAW_PBE C 08Apr2002                    </c></rc>
    <rc><c>   1</c><c>F </c><c>     18.99800000</c><c>      7.00000000</c><c> PAW_PBE F 08Apr2002                    </c></rc>
    <rc><c>  48</c><c>Si</c><c>     28.08500000</c><c>      4.00000000</c><c> PAW_PBE Si 05Jan2001                   </c></rc>
    <rc><c>   1</c><c>K </c><c>     39.09800000</c><c>      9.00000000</c><c> PAW_PBE K_sv 06Sep2000                 </c></rc>
   </set>
  </array>
 </atominfo>
 <structure name="initialpos" >
  <crystal>
   <varray name="basis" >
    <v>       9.28425000       0.00000000       0.00000000 </v>
    <v>       0.00000000      10.72053000       0.00000000 </v>
    <v>       0.00000000       0.00000000      19.49580000 </v>
   </varray>
   <i name="volume">   1940.45753799 </i>
   <varray name="rec_basis" >
    <v>       0.10770929       0.00000000       0.00000000 </v>
    <v>       0.00000000       0.09327897       0.00000000 </v>
    <v>       0.00000000       0.00000000       0.05129310 </v>
   </varray>
  </crystal>
  <varray name="positions" >
   <v>       0.00000000       0.00000000       0.00000000 </v>
   <v>       0.16666700       0.25000000       0.00000000 </v>
   <v>       0.00000000       0.00000000       0.38944500 </v>
   <v>       0.16666700       0.25000000       0.38944500 </v>
   <v>       0.00000000       0.16666600       0.13018000 </v>
   <v>       0.16666700       0.41666600       0.13018000 </v>
   <v>       0.00000000       0.33333400       0.25985200 </v>
   <v>       0.16666700       0.08333300       0.25985200 </v>
   <v>       0.33333300       0.00000000       0.00000000 </v>
   <v>       0.50000000       0.25000000       0.00000000 </v>
   <v>       0.33333300       0.00000000       0.38944500 </v>
   <v>       0.50000000       0.25000000       0.38944500 </v>
   <v>       0.33333300       0.16666600       0.13018000 </v>
   <v>       0.50000000       0.41666600       0.13018000 </v>
   <v>       0.33333300       0.33333400       0.25985200 </v>
   <v>       0.50000000       0.08333300       0.25985200 </v>
   <v>       0.66666700       0.00000000       0.00000000 </v>
   <v>       0.83333300       0.25000000       0.00000000 </v>
   <v>       0.66666700       0.00000000       0.38944500 </v>
   <v>       0.83333300       0.25000000       0.38944500 </v>
   <v>       0.66666700       0.16666600       0.13018000 </v>
   <v>       0.83333300       0.41666600       0.13018000 </v>
   <v>       0.66666700       0.33333400       0.25985200 </v>
   <v>       0.83333300       0.08333400       0.25985200 </v>
   <v>       0.00000000       0.50000000       0.00000000 </v>
   <v>       0.16666700       0.75000000       0.00000000 </v>
   <v>       0.00000000       0.50000000       0.38944500 </v>
   <v>       0.16666700       0.75000000       0.38944500 </v>
   <v>       0.00000000       0.66666600       0.13018000 </v>
   <v>       0.16666700       0.91666600       0.13018000 </v>
   <v>       0.00000000       0.83333400       0.25985200 </v>
   <v>       0.16666700       0.58333400       0.25985200 </v>
   <v>       0.33333300       0.50000000       0.00000000 </v>
   <v>       0.50000000       0.75000000       0.00000000 </v>
   <v>       0.33333300       0.50000000       0.38944500 </v>
   <v>       0.50000000       0.75000000       0.38944500 </v>
   <v>       0.33333300       0.66666600       0.13018000 </v>
   <v>       0.50000000       0.91666700       0.13018000 </v>
   <v>       0.33333300       0.83333400       0.25985200 </v>
   <v>       0.50000000       0.58333400       0.25985200 </v>
   <v>       0.66666700       0.50000000       0.00000000 </v>
   <v>       0.83333300       0.75000000       0.00000000 </v>
   <v>       0.66666700       0.50000000       0.38944500 </v>
   <v>       0.83333300       0.75000000       0.38944500 </v>
   <v>       0.66666700       0.66666600       0.13018000 </v>
   <v>       0.83333300       0.91666700       0.13018000 </v>
   <v>       0.66666700       0.83333400       0.25985200 </v>
   <v>       0.83333300       0.58333400       0.25985200 </v>
   <v>       0.17090945       0.73445765       0.55038769 </v>
   <v>       0.00000000       0.00000000       0.09762400 </v>
   <v>       0.16666700       0.25000000       0.09762400 </v>
   <v>       0.97509757       0.98975409       0.48651054 </v>
   <v>       0.16290199       0.25491351       0.48615200 </v>
   <v>       0.00000000       0.16666600       0.22753200 </v>
   <v>       0.16666700       0.41666600       0.22753200 </v>
   <v>       0.00000000       0.33333400       0.35720700 </v>
   <v>       0.16666700       0.08333300       0.35720700 </v>
   <v>       0.33333300       0.00000000       0.09762400 </v>
   <v>       0.50000000       0.25000000       0.09762400 </v>
   <v>       0.35398390       0.99179065       0.48610199 </v>
   <v>       0.49148346       0.25158573       0.48688550 </v>
   <v>       0.33333300       0.16666600       0.22753200 </v>
   <v>       0.50000000       0.41666600       0.22753200 </v>
   <v>       0.33333300       0.33333400       0.35720700 </v>
   <v>       0.50000000       0.08333300       0.35720700 </v>
   <v>       0.66666700       0.00000000       0.09762400 </v>
   <v>       0.83333300       0.25000000       0.09762400 </v>
   <v>       0.66900621       0.98630041       0.48633957 </v>
   <v>       0.84161702       0.25702906       0.48690091 </v>
   <v>       0.66666700       0.16666600       0.22753200 </v>
   <v>       0.83333300       0.41666600       0.22753200 </v>
   <v>       0.66666700       0.33333400       0.35720700 </v>
   <v>       0.83333300       0.08333400       0.35720700 </v>
   <v>       0.00000000       0.50000000       0.09762400 </v>
   <v>       0.16666700       0.75000000       0.09762400 </v>
   <v>       0.99133352       0.47528013       0.48633686 </v>
   <v>       0.16449305       0.82711873       0.48216158 </v>
   <v>       0.00000000       0.66666600       0.22753200 </v>
   <v>       0.16666700       0.91666600       0.22753200 </v>
   <v>       0.00000000       0.83333400       0.35720700 </v>
   <v>       0.16666700       0.58333400       0.35720700 </v>
   <v>       0.33333300       0.50000000       0.09762400 </v>
   <v>       0.50000000       0.75000000       0.09762400 </v>
   <v>       0.33222938       0.46889507       0.48693243 </v>
   <v>       0.52339312       0.76567129       0.48695799 </v>
   <v>       0.33333300       0.66666600       0.22753200 </v>
   <v>       0.50000000       0.91666700       0.22753200 </v>
   <v>       0.33333300       0.83333400       0.35720700 </v>
   <v>       0.50000000       0.58333400       0.35720700 </v>
   <v>       0.66666700       0.50000000       0.09762400 </v>
   <v>       0.83333300       0.75000000       0.09762400 </v>
   <v>       0.67885657       0.50224170       0.48691412 </v>
   <v>       0.81252352       0.75809790       0.48604610 </v>
   <v>       0.66666700       0.66666600       0.22753200 </v>
   <v>       0.83333300       0.91666700       0.22753200 </v>
   <v>       0.66666700       0.83333400       0.35720700 </v>
   <v>       0.83333300       0.58333400       0.35720700 </v>
   <v>       0.36221654       0.64219973       0.63829400 </v>
  </varray>
  <varray name="selective"  type="logical" >
   <v type="logical" >  F  F  F </v>
   <v type="logical" >  F  F  F </v>
   <v type="logical" >  F  F  F </v>
   <v type="logical" >  F  F  F </v>
   <v type="logical" >  F  F  F </v>
   <v type="logical" >  F  F  F </v>
   <v type="logical" >  F  F  F </v>
   <v type="logical" >  F  F  F </v>
   <v type="logical" >  F  F  F </v>
   <v type="logical" >  F  F  F </v>
   <v type="logical" >  F  F  F </v>
   <v type="logical" >  F  F  F </v>
   <v type="logical" >  F  F  F </v>
   <v type="logical" >  F  F  F </v>
   <v type="logical" >  F  F  F </v>
   <v type="logical" >  F  F  F </v>
   <v type="logical" >  F  F  F </v>
   <v type="logical" >  F  F  F </v>
   <v type="logical" >  F  F  F </v>
   <v type="logical" >  F  F  F </v>
   <v type="logical" >  F  F  F </v>
   <v type="logical" >  F  F  F </v>
   <v type="logical" >  F  F  F </v>
   <v type="logical" >  F  F  F </v>
   <v type="logical" >  F  F  F </v>
   <v type="logical" >  F  F  F </v>
   <v type="logical" >  F  F  F </v>
   <v type="logical" >  F  F  F </v>
   <v type="logical" >  F  F  F </v>
   <v type="logical" >  F  F  F </v>
   <v type="logical" >  F  F  F </v>
   <v type="logical" >  F  F  F </v>
   <v type="logical" >  F  F  F </v>
   <v type="logical" >  F  F  F </v>
   <v type="logical" >  F  F  F </v>
   <v type="logical" >  F  F  F </v>
   <v type="logical" >  F  F  F </v>
   <v type="logical" >  F  F  F </v>
   <v type="logical" >  F  F  F </v>
   <v type="logical" >  F  F  F </v>
   <v type="logical" >  F  F  F </v>
   <v type="logical" >  F  F  F </v>
   <v type="logical" >  F  F  F </v>
   <v type="logical" >  F  F  F </v>
   <v type="logical" >  F  F  F </v>
   <v type="logical" >  F  F  F </v>
   <v type="logical" >  F  F  F </v>
   <v type="logical" >  F  F  F </v>
   <v type="logical" >  T  T  T </v>
   <v type="logical" >  F  F  F </v>
   <v type="logical" >  F  F  F </v>
   <v type="logical" >  T  T  T </v>
   <v type="logical" >  T  T  T </v>
   <v type="logical" >  F  F  F </v>
   <v type="logical" >  F  F  F </v>
   <v type="logical" >  F  F  F </v>
   <v type="logical" >  F  F  F </v>
   <v type="logical" >  F  F  F </v>
   <v type="logical" >  F  F  F </v>
   <v type="logical" >  T  T  T </v>
   <v type="logical" >  T  T  T </v>
   <v type="logical" >  F  F  F </v>
   <v type="logical" >  F  F  F </v>
   <v type="logical" >  F  F  F </v>
   <v type="logical" >  F  F  F </v>
   <v type="logical" >  F  F  F </v>
   <v type="logical" >  F  F  F </v>
   <v type="logical" >  T  T  T </v>
   <v type="logical" >  T  T  T </v>
   <v type="logical" >  F  F  F </v>
   <v type="logical" >  F  F  F </v>
   <v type="logical" >  F  F  F </v>
   <v type="logical" >  F  F  F </v>
   <v type="logical" >  F  F  F </v>
   <v type="logical" >  F  F  F </v>
   <v type="logical" >  T  T  T </v>
   <v type="logical" >  T  T  T </v>
   <v type="logical" >  F  F  F </v>
   <v type="logical" >  F  F  F </v>
   <v type="logical" >  F  F  F </v>
   <v type="logical" >  F  F  F </v>
   <v type="logical" >  F  F  F </v>
   <v type="logical" >  F  F  F </v>
   <v type="logical" >  T  T  T </v>
   <v type="logical" >  T  T  T </v>
   <v type="logical" >  F  F  F </v>
   <v type="logical" >  F  F  F </v>
   <v type="logical" >  F  F  F </v>
   <v type="logical" >  F  F  F </v>
   <v type="logical" >  F  F  F </v>
   <v type="logical" >  F  F  F </v>
   <v type="logical" >  T  T  T </v>
   <v type="logical" >  T  T  T </v>
   <v type="logical" >  F  F  F </v>
   <v type="logical" >  F  F  F </v>
   <v type="logical" >  F  F  F </v>
   <v type="logical" >  F  F  F </v>
   <v type="logical" >  T  T  T </v>
  </varray>
  <nose>
   <v>      -3.00000000       0.00000000       0.00010000       0.00010000 </v>
  </nose>
 </structure>
 <calculation>
  <scstep>
   <time name="dav">   43.26    6.20</time>
   <time name="total">   53.28    7.90</time>
   <energy>
    <i name="alphaZ">    318.41319391 </i>
    <i name="ewald">  30859.83569397 </i>
    <i name="hartreedc"> -43918.40425514 </i>
    <i name="XCdc">    283.02960146 </i>
    <i name="pawpsdc">   4337.97084573 </i>
    <i name="pawaedc">  -3548.78544197 </i>
    <i name="eentropy">     -0.10800964 </i>
    <i name="bandstr">    365.38245014 </i>
    <i name="atom">  13444.54662946 </i>
    <i name="e_fr_energy">   2141.88070793 </i>
    <i name="e_wo_entrp">   2141.98871756 </i>
    <i name="e_0_energy">   2141.93471274 </i>
   </energy>
  </scstep>
  <scstep>
   <time name="dav">   51.81    7.42</time>
   <time name="total">   51.82    7.43</time>
   <energy>
    <i name="e_fr_energy">   -390.90836189 </i>
    <i name="e_wo_entrp">   -390.82684389 </i>
    <i name="e_0_energy">   -390.86760289 </i>
   </energy>
  </scstep>
  <scstep>
   <time name="dav">   53.30    7.64</time>
   <time name="total">   53.31    7.64</time>
   <energy>
    <i name="e_fr_energy">   -705.62404485 </i>
    <i name="e_wo_entrp">   -705.52318903 </i>
    <i name="e_0_energy">   -705.57361694 </i>
   </energy>
  </scstep>
  <scstep>
   <time name="dav">   54.70    7.85</time>
   <time name="total">   54.71    7.86</time>
   <energy>
    <i name="e_fr_energy">   -723.09911973 </i>
    <i name="e_wo_entrp">   -722.98983992 </i>
    <i name="e_0_energy">   -723.04447983 </i>
   </energy>
  </scstep>
  <scstep>
   <time name="dav">   56.14    8.08</time>
   <time name="total">   58.72    8.61</time>
   <energy>
    <i name="e_fr_energy">   -723.83027046 </i>
    <i name="e_wo_entrp">   -723.72055128 </i>
    <i name="e_0_energy">   -723.77541087 </i>
   </energy>
  </scstep>
  <scstep>
   <time name="diag">    3.26    0.66</time>
   <time name="diis">    6.44    2.80</time>
   <time name="orth">    0.13    0.06</time>
   <time name="total">   21.90    5.70</time>
   <energy>
    <i name="e_fr_energy">   -646.52733059 </i>
    <i name="e_wo_entrp">   -646.41311470 </i>
    <i name="e_0_energy">   -646.47022265 </i>
   </energy>
  </scstep>
  <scstep>
   <time name="diag">    3.24    0.66</time>
   <time name="diis">    6.67    2.91</time>
   <time name="orth">    0.13    0.06</time>
   <time name="total">   22.13    5.81</time>
   <energy>
    <i name="e_fr_energy">   -647.95215843 </i>
    <i name="e_wo_entrp">   -647.85354260 </i>
    <i name="e_0_energy">   -647.90285052 </i>
   </energy>
  </scstep>
  <scstep>
   <time name="diag">    3.27    0.66</time>
   <time name="diis">    6.85    3.01</time>
   <time name="orth">    0.13    0.06</time>
   <time name="total">   22.33    5.91</time>
   <energy>
    <i name="e_fr_energy">   -646.59251766 </i>
    <i name="e_wo_entrp">   -646.48278028 </i>
    <i name="e_0_energy">   -646.53764897 </i>
   </energy>
  </scstep>
  <scstep>
   <time name="diag">    3.32    0.67</time>
   <time name="diis">    6.46    2.83</time>
   <time name="orth">    0.13    0.06</time>
   <time name="total">   22.02    5.75</time>
   <energy>
    <i name="e_fr_energy">   -646.22759634 </i>
    <i name="e_wo_entrp">   -646.09682532 </i>
    <i name="e_0_energy">   -646.16221083 </i>
   </energy>
  </scstep>
  <scstep>
   <time name="diag">    3.24    0.66</time>
   <time name="diis">    6.78    2.99</time>
   <time name="orth">    0.13    0.07</time>
   <time name="total">   22.27    5.89</time>
   <energy>
    <i name="e_fr_energy">   -645.71987906 </i>
    <i name="e_wo_entrp">   -645.59459936 </i>
    <i name="e_0_energy">   -645.65723921 </i>
   </energy>
  </scstep>
  <scstep>
   <time name="diag">    3.05    0.65</time>
   <time name="diis">    7.67    3.44</time>
   <time name="orth">    0.13    0.07</time>
   <time name="total">   23.26    6.39</time>
   <energy>
    <i name="e_fr_energy">   -645.59975804 </i>
    <i name="e_wo_entrp">   -645.47588563 </i>
    <i name="e_0_energy">   -645.53782183 </i>
   </energy>
  </scstep>
  <scstep>
   <time name="diag">    3.25    0.66</time>
   <time name="diis">    7.13    3.16</time>
   <time name="orth">    0.13    0.06</time>
   <time name="total">   22.67    6.07</time>
   <energy>
    <i name="e_fr_energy">   -645.56844077 </i>
    <i name="e_wo_entrp">   -645.44616075 </i>
    <i name="e_0_energy">   -645.50730076 </i>
   </energy>
  </scstep>
  <scstep>
   <time name="diag">    3.24    0.66</time>
   <time name="diis">    6.67    2.94</time>
   <time name="orth">    0.13    0.07</time>
   <time name="total">   22.25    5.86</time>
   <energy>
    <i name="e_fr_energy">   -645.49387984 </i>
    <i name="e_wo_entrp">   -645.37219976 </i>
    <i name="e_0_energy">   -645.43303980 </i>
   </energy>
  </scstep>
  <scstep>
   <time name="diag">    3.24    0.65</time>
   <time name="diis">    7.60    3.41</time>
   <time name="orth">    0.13    0.07</time>
   <time name="total">   23.23    6.34</time>
   <energy>
    <i name="e_fr_energy">   -645.47540746 </i>
    <i name="e_wo_entrp">   -645.35443220 </i>
    <i name="e_0_energy">   -645.41491983 </i>
   </energy>
  </scstep>
  <scstep>
   <time name="diag">    2.98    0.65</time>
   <time name="diis">    8.57    3.90</time>
   <time name="orth">    0.13    0.07</time>
   <time name="total">   24.44    6.89</time>
   <energy>
    <i name="e_fr_energy">   -645.45568068 </i>
    <i name="e_wo_entrp">   -645.33675282 </i>
    <i name="e_0_energy">   -645.39621675 </i>
   </energy>
  </scstep>
  <scstep>
   <time name="diag">    3.24    0.65</time>
   <time name="diis">    9.00    4.11</time>
   <time name="orth">    0.13    0.07</time>
   <time name="total">   24.65    7.04</time>
   <energy>
    <i name="e_fr_energy">   -645.45848362 </i>
    <i name="e_wo_entrp">   -645.34021461 </i>
    <i name="e_0_energy">   -645.39934912 </i>
   </energy>
  </scstep>
  <scstep>
   <time name="diag">    3.20    0.65</time>
   <time name="diis">    9.20    4.21</time>
   <time name="orth">    0.13    0.07</time>
   <time name="total">   24.83    7.14</time>
   <energy>
    <i name="e_fr_energy">   -645.45855466 </i>
    <i name="e_wo_entrp">   -645.34042580 </i>
    <i name="e_0_energy">   -645.39949023 </i>
   </energy>
  </scstep>
  <scstep>
   <time name="diag">    3.22    0.66</time>
   <time name="diis">    9.18    4.20</time>
   <time name="orth">    0.13    0.07</time>
   <time name="total">   24.85    7.13</time>
   <energy>
    <i name="e_fr_energy">   -645.46136259 </i>
    <i name="e_wo_entrp">   -645.34270774 </i>
    <i name="e_0_energy">   -645.40203516 </i>
   </energy>
  </scstep>
  <scstep>
   <time name="diag">    3.23    0.66</time>
   <time name="diis">   10.40    4.78</time>
   <time name="orth">    0.13    0.06</time>
   <time name="total">   26.09    7.71</time>
   <energy>
    <i name="e_fr_energy">   -645.46390237 </i>
    <i name="e_wo_entrp">   -645.34522348 </i>
    <i name="e_0_energy">   -645.40456293 </i>
   </energy>
  </scstep>
  <scstep>
   <time name="diag">    3.24    0.65</time>
   <time name="diis">    9.99    4.57</time>
   <time name="orth">    0.13    0.06</time>
   <time name="total">   25.80    7.52</time>
   <energy>
    <i name="e_fr_energy">   -645.46705493 </i>
    <i name="e_wo_entrp">   -645.34836833 </i>
    <i name="e_0_energy">   -645.40771163 </i>
   </energy>
  </scstep>
  <scstep>
   <time name="diag">    3.11    0.65</time>
   <time name="diis">    9.78    4.50</time>
   <time name="orth">    0.13    0.07</time>
   <time name="total">   25.59    7.47</time>
   <energy>
    <i name="e_fr_energy">   -645.47053840 </i>
    <i name="e_wo_entrp">   -645.35169531 </i>
    <i name="e_0_energy">   -645.41111685 </i>
   </energy>
  </scstep>
  <scstep>
   <time name="diag">    3.26    0.66</time>
   <time name="diis">   10.26    4.77</time>
   <time name="orth">    0.13    0.07</time>
   <time name="total">   26.08    7.72</time>
   <energy>
    <i name="e_fr_energy">   -645.47122266 </i>
    <i name="e_wo_entrp">   -645.35229777 </i>
    <i name="e_0_energy">   -645.41176021 </i>
   </energy>
  </scstep>
  <scstep>
   <time name="diag">    3.22    0.66</time>
   <time name="diis">   10.49    4.87</time>
   <time name="orth">    0.13    0.07</time>
   <time name="total">   26.23    7.81</time>
   <energy>
    <i name="e_fr_energy">   -645.47197927 </i>
    <i name="e_wo_entrp">   -645.35306144 </i>
    <i name="e_0_energy">   -645.41252035 </i>
   </energy>
  </scstep>
  <scstep>
   <time name="diag">    3.24    0.65</time>
   <time name="diis">   10.64    4.92</time>
   <time name="orth">    0.13    0.06</time>
   <time name="total">   26.43    7.87</time>
   <energy>
    <i name="e_fr_energy">   -645.47246966 </i>
    <i name="e_wo_entrp">   -645.35354495 </i>
    <i name="e_0_energy">   -645.41300730 </i>
   </energy>
  </scstep>
  <scstep>
   <time name="diag">    3.26    0.65</time>
   <time name="diis">   10.53    4.87</time>
   <time name="orth">    0.13    0.06</time>
   <time name="total">   26.47    7.84</time>
   <energy>
    <i name="e_fr_energy">   -645.47260468 </i>
    <i name="e_wo_entrp">   -645.35368089 </i>
    <i name="e_0_energy">   -645.41314278 </i>
   </energy>
  </scstep>
  <scstep>
   <time name="diag">    3.27    0.66</time>
   <time name="diis">   10.58    4.88</time>
   <time name="orth">    0.13    0.06</time>
   <time name="total">   26.59    7.85</time>
   <energy>
    <i name="e_fr_energy">   -645.47277847 </i>
    <i name="e_wo_entrp">   -645.35385602 </i>
    <i name="e_0_energy">   -645.41331725 </i>
   </energy>
  </scstep>
  <scstep>
   <time name="diag">    3.32    0.67</time>
   <time name="diis">    9.85    4.57</time>
   <time name="orth">    0.13    0.07</time>
   <time name="total">   26.13    7.59</time>
   <energy>
    <i name="e_fr_energy">   -645.47287384 </i>
    <i name="e_wo_entrp">   -645.35394862 </i>
    <i name="e_0_energy">   -645.41341123 </i>
   </energy>
  </scstep>
  <scstep>
   <time name="diag">    3.22    0.65</time>
   <time name="diis">    9.09    4.12</time>
   <time name="orth">    0.13    0.06</time>
   <time name="total">   25.20    7.12</time>
   <energy>
    <i name="e_fr_energy">   -645.47290387 </i>
    <i name="e_wo_entrp">   -645.35397674 </i>
    <i name="e_0_energy">   -645.41344031 </i>
   </energy>
  </scstep>
  <scstep>
   <time name="diag">    3.26    0.66</time>
   <time name="diis">    8.95    4.09</time>
   <time name="orth">    0.13    0.07</time>
   <time name="total">   25.15    7.10</time>
   <energy>
    <i name="e_fr_energy">   -645.47292459 </i>
    <i name="e_wo_entrp">   -645.35399553 </i>
    <i name="e_0_energy">   -645.41346006 </i>
   </energy>
  </scstep>
  <scstep>
   <time name="diag">    3.19    0.66</time>
   <time name="diis">    8.19    3.71</time>
   <time name="orth">    0.13    0.07</time>
   <time name="total">   24.35    6.72</time>
   <energy>
    <i name="e_fr_energy">   -645.47293515 </i>
    <i name="e_wo_entrp">   -645.35400877 </i>
    <i name="e_0_energy">   -645.41347196 </i>
   </energy>
  </scstep>
  <scstep>
   <time name="diag">    3.21    0.66</time>
   <time name="diis">    7.81    3.51</time>
   <time name="orth">    0.13    0.07</time>
   <time name="total">   23.98    6.51</time>
   <energy>
    <i name="e_fr_energy">   -645.47293781 </i>
    <i name="e_wo_entrp">   -645.35401170 </i>
    <i name="e_0_energy">   -645.41347476 </i>
   </energy>
  </scstep>
  <scstep>
   <time name="diag">    3.24    0.66</time>
   <time name="diis">    7.30    3.25</time>
   <time name="orth">    0.13    0.07</time>
   <time name="total">   23.55    6.27</time>
   <energy>
    <i name="e_fr_energy">   -645.47293980 </i>
    <i name="e_wo_entrp">   -645.35401357 </i>
    <i name="e_0_energy">   -645.41347668 </i>
   </energy>
  </scstep>
  <scstep>
   <time name="diag">    3.26    0.66</time>
   <time name="diis">    7.06    3.16</time>
   <time name="orth">    0.13    0.07</time>
   <time name="total">   23.59    6.22</time>
   <energy>
    <i name="e_fr_energy">   -645.47294180 </i>
    <i name="e_wo_entrp">   -645.35401631 </i>
    <i name="e_0_energy">   -645.41347906 </i>
   </energy>
  </scstep>
  <scstep>
   <time name="diag">    3.25    0.66</time>
   <time name="diis">    6.55    2.88</time>
   <time name="orth">    0.13    0.07</time>
   <time name="total">   19.90    5.28</time>
   <energy>
    <i name="alphaZ">    318.41319391 </i>
    <i name="ewald">  30859.83569397 </i>
    <i name="hartreedc"> -44629.53570168 </i>
    <i name="XCdc">    325.51673249 </i>
    <i name="pawpsdc">   5473.40427002 </i>
    <i name="pawaedc">  -4693.60343682 </i>
    <i name="eentropy">     -0.11892516 </i>
    <i name="bandstr">  -1743.93139875 </i>
    <i name="atom">  13444.54662946 </i>
    <i name="e_fr_energy">   -645.47294255 </i>
    <i name="e_wo_entrp">   -645.35401739 </i>
    <i name="e_0_energy">   -645.41347997 </i>
   </energy>
  </scstep>
  <structure>
   <crystal>
    <varray name="basis" >
     <v>       9.28425000       0.00000000       0.00000000 </v>
     <v>       0.00000000      10.72053000       0.00000000 </v>
     <v>       0.00000000       0.00000000      19.49580000 </v>
    </varray>
    <i name="volume">   1940.45753799 </i>
    <varray name="rec_basis" >
     <v>       0.10770929       0.00000000       0.00000000 </v>
     <v>       0.00000000       0.09327897       0.00000000 </v>
     <v>       0.00000000       0.00000000       0.05129310 </v>
    </varray>
   </crystal>
   <varray name="positions" >
    <v>       0.00000000       0.00000000       0.00000000 </v>
    <v>       0.16666700       0.25000000       0.00000000 </v>
    <v>       0.00000000       0.00000000       0.38944500 </v>
    <v>       0.16666700       0.25000000       0.38944500 </v>
    <v>       0.00000000       0.16666600       0.13018000 </v>
    <v>       0.16666700       0.41666600       0.13018000 </v>
    <v>       0.00000000       0.33333400       0.25985200 </v>
    <v>       0.16666700       0.08333300       0.25985200 </v>
    <v>       0.33333300       0.00000000       0.00000000 </v>
    <v>       0.50000000       0.25000000       0.00000000 </v>
    <v>       0.33333300       0.00000000       0.38944500 </v>
    <v>       0.50000000       0.25000000       0.38944500 </v>
    <v>       0.33333300       0.16666600       0.13018000 </v>
    <v>       0.50000000       0.41666600       0.13018000 </v>
    <v>       0.33333300       0.33333400       0.25985200 </v>
    <v>       0.50000000       0.08333300       0.25985200 </v>
    <v>       0.66666700       0.00000000       0.00000000 </v>
    <v>       0.83333300       0.25000000       0.00000000 </v>
    <v>       0.66666700       0.00000000       0.38944500 </v>
    <v>       0.83333300       0.25000000       0.38944500 </v>
    <v>       0.66666700       0.16666600       0.13018000 </v>
    <v>       0.83333300       0.41666600       0.13018000 </v>
    <v>       0.66666700       0.33333400       0.25985200 </v>
    <v>       0.83333300       0.08333400       0.25985200 </v>
    <v>       0.00000000       0.50000000       0.00000000 </v>
    <v>       0.16666700       0.75000000       0.00000000 </v>
    <v>       0.00000000       0.50000000       0.38944500 </v>
    <v>       0.16666700       0.75000000       0.38944500 </v>
    <v>       0.00000000       0.66666600       0.13018000 </v>
    <v>       0.16666700       0.91666600       0.13018000 </v>
    <v>       0.00000000       0.83333400       0.25985200 </v>
    <v>       0.16666700       0.58333400       0.25985200 </v>
    <v>       0.33333300       0.50000000       0.00000000 </v>
    <v>       0.50000000       0.75000000       0.00000000 </v>
    <v>       0.33333300       0.50000000       0.38944500 </v>
    <v>       0.50000000       0.75000000       0.38944500 </v>
    <v>       0.33333300       0.66666600       0.13018000 </v>
    <v>       0.50000000       0.91666700       0.13018000 </v>
    <v>       0.33333300       0.83333400       0.25985200 </v>
    <v>       0.50000000       0.58333400       0.25985200 </v>
    <v>       0.66666700       0.50000000       0.00000000 </v>
    <v>       0.83333300       0.75000000       0.00000000 </v>
    <v>       0.66666700       0.50000000       0.38944500 </v>
    <v>       0.83333300       0.75000000       0.38944500 </v>
    <v>       0.66666700       0.66666600       0.13018000 </v>
    <v>       0.83333300       0.91666700       0.13018000 </v>
    <v>       0.66666700       0.83333400       0.25985200 </v>
    <v>       0.83333300       0.58333400       0.25985200 </v>
    <v>       0.17090945       0.73445765       0.55038769 </v>
    <v>       0.00000000       0.00000000       0.09762400 </v>
    <v>       0.16666700       0.25000000       0.09762400 </v>
    <v>       0.97509757       0.98975409       0.48651054 </v>
    <v>       0.16290199       0.25491351       0.48615200 </v>
    <v>       0.00000000       0.16666600       0.22753200 </v>
    <v>       0.16666700       0.41666600       0.22753200 </v>
    <v>       0.00000000       0.33333400       0.35720700 </v>
    <v>       0.16666700       0.08333300       0.35720700 </v>
    <v>       0.33333300       0.00000000       0.09762400 </v>
    <v>       0.50000000       0.25000000       0.09762400 </v>
    <v>       0.35398390       0.99179065       0.48610199 </v>
    <v>       0.49148346       0.25158573       0.48688550 </v>
    <v>       0.33333300       0.16666600       0.22753200 </v>
    <v>       0.50000000       0.41666600       0.22753200 </v>
    <v>       0.33333300       0.33333400       0.35720700 </v>
    <v>       0.50000000       0.08333300       0.35720700 </v>
    <v>       0.66666700       0.00000000       0.09762400 </v>
    <v>       0.83333300       0.25000000       0.09762400 </v>
    <v>       0.66900621       0.98630041       0.48633957 </v>
    <v>       0.84161702       0.25702906       0.48690091 </v>
    <v>       0.66666700       0.16666600       0.22753200 </v>
    <v>       0.83333300       0.41666600       0.22753200 </v>
    <v>       0.66666700       0.33333400       0.35720700 </v>
    <v>       0.83333300       0.08333400       0.35720700 </v>
    <v>       0.00000000       0.50000000       0.09762400 </v>
    <v>       0.16666700       0.75000000       0.09762400 </v>
    <v>       0.99133352       0.47528013       0.48633686 </v>
    <v>       0.16449305       0.82711873       0.48216158 </v>
    <v>       0.00000000       0.66666600       0.22753200 </v>
    <v>       0.16666700       0.91666600       0.22753200 </v>
    <v>       0.00000000       0.83333400       0.35720700 </v>
    <v>       0.16666700       0.58333400       0.35720700 </v>
    <v>       0.33333300       0.50000000       0.09762400 </v>
    <v>       0.50000000       0.75000000       0.09762400 </v>
    <v>       0.33222938       0.46889507       0.48693243 </v>
    <v>       0.52339312       0.76567129       0.48695799 </v>
    <v>       0.33333300       0.66666600       0.22753200 </v>
    <v>       0.50000000       0.91666700       0.22753200 </v>
    <v>       0.33333300       0.83333400       0.35720700 </v>
    <v>       0.50000000       0.58333400       0.35720700 </v>
    <v>       0.66666700       0.50000000       0.09762400 </v>
    <v>       0.83333300       0.75000000       0.09762400 </v>
    <v>       0.67885657       0.50224170       0.48691412 </v>
    <v>       0.81252352       0.75809790       0.48604610 </v>
    <v>       0.66666700       0.66666600       0.22753200 </v>
    <v>       0.83333300       0.91666700       0.22753200 </v>
    <v>       0.66666700       0.83333400       0.35720700 </v>
    <v>       0.83333300       0.58333400       0.35720700 </v>
    <v>       0.36221654       0.64219973       0.63829400 </v>
   </varray>
  </structure>
  <varray name="forces" >
   <v>      -0.00361218      -0.00132660      -0.17478326 </v>
   <v>       0.00217105      -0.00188486      -0.19068816 </v>
   <v>      -0.35593699      -0.08236231      -0.08786085 </v>
   <v>      -0.06239133      -0.08897450      -0.18767397 </v>
   <v>       0.01225351      -0.00137276       0.05748910 </v>
   <v>      -0.00153184       0.02942920       0.08090979 </v>
   <v>       0.01712114       0.00865419      -0.00587298 </v>
   <v>       0.00151711      -0.05762534       0.15537314 </v>
   <v>       0.00388006      -0.00447947      -0.18343881 </v>
   <v>       0.00288596       0.00171223      -0.18943047 </v>
   <v>       0.29626914      -0.01327454      -0.22043828 </v>
   <v>      -0.11470686      -0.10176868       0.20400369 </v>
   <v>      -0.00544642      -0.00299295       0.06413121 </v>
   <v>       0.00050213       0.00230466       0.08272397 </v>
   <v>      -0.00301978      -0.00858578       0.01387936 </v>
   <v>       0.02306927       0.03018167       0.07671685 </v>
   <v>      -0.00072523      -0.00603394      -0.18663777 </v>
   <v>      -0.00321493      -0.00351280      -0.18542672 </v>
   <v>       0.06744459      -0.06854720      -0.12499974 </v>
   <v>       0.11660277      -0.01609718       0.14001041 </v>
   <v>      -0.00406493       0.01347454       0.04729819 </v>
   <v>      -0.00140118       0.00206103       0.06986364 </v>
   <v>      -0.01900294       0.00945164       0.12310742 </v>
   <v>      -0.01789555       0.04971095       0.07072865 </v>
   <v>       0.00605876      -0.00478186      -0.19214516 </v>
   <v>       0.00294083      -0.00766092      -0.19984455 </v>
   <v>      -0.01963019      -0.26551502       0.10481149 </v>
   <v>      -0.01208001       0.87853494       1.20750835 </v>
   <v>       0.00880866      -0.01866685       0.07848746 </v>
   <v>      -0.00135643      -0.00164737       0.07161183 </v>
   <v>       0.05040223      -0.05032347       0.09423435 </v>
   <v>       0.02213173       0.16667809       0.26109656 </v>
   <v>      -0.00098535      -0.00284359      -0.18946725 </v>
   <v>      -0.00013678      -0.00887926      -0.19670768 </v>
   <v>      -0.05546233      -0.45586513       0.43384487 </v>
   <v>       0.21889490       0.19432951       0.17617605 </v>
   <v>      -0.00128932      -0.01463749       0.08555015 </v>
   <v>      -0.01407521      -0.01066766       0.04277337 </v>
   <v>      -0.04006859      -0.05646277       0.10386779 </v>
   <v>      -0.04527722      -0.00293910       0.16018139 </v>
   <v>      -0.00299055      -0.00529147      -0.17532892 </v>
   <v>      -0.00319144      -0.00603604      -0.19815027 </v>
   <v>       0.13026656       0.04684889       0.18706211 </v>
   <v>      -0.18509427       0.06594250      -0.17809086 </v>
   <v>      -0.00666778      -0.01005967       0.06457494 </v>
   <v>       0.01615540      -0.00496018       0.04133107 </v>
   <v>       0.00065644       0.03585545      -0.05623476 </v>
   <v>       0.03278153       0.00004623       0.08300022 </v>
   <v>      -0.01445661       0.03112099      -0.03902054 </v>
   <v>       0.00433917       0.00308228       0.14274606 </v>
   <v>      -0.00144063       0.00131532       0.14857497 </v>
   <v>       0.00836797      -0.02321130      -0.00277233 </v>
   <v>      -0.00089089      -0.00267059      -0.00326480 </v>
   <v>      -0.03868446       0.00651697      -0.08509936 </v>
   <v>      -0.00932551      -0.10278656      -0.07630512 </v>
   <v>       0.00414073      -0.01683827      -0.37521266 </v>
   <v>      -0.02161969       0.06855160       0.13778605 </v>
   <v>      -0.00703724       0.00660061       0.13615745 </v>
   <v>       0.00438584       0.00306961       0.15035594 </v>
   <v>       0.00901048       0.00258737       0.01822336 </v>
   <v>      -0.00318466      -0.00073678      -0.00155290 </v>
   <v>       0.03326741       0.00395682      -0.09483316 </v>
   <v>      -0.02197556      -0.03318794      -0.09946784 </v>
   <v>      -0.05947510      -0.03454013      -0.35987637 </v>
   <v>       0.06401946      -0.04786777      -0.29211433 </v>
   <v>       0.00397745       0.00636835       0.15681870 </v>
   <v>      -0.00451822       0.00466041       0.14657456 </v>
   <v>      -0.01519649      -0.01261565       0.02218204 </v>
   <v>      -0.00069493      -0.00088117       0.00170245 </v>
   <v>       0.00497373      -0.04184892      -0.09809324 </v>
   <v>       0.03152995      -0.00255117      -0.08665774 </v>
   <v>       0.05249833      -0.00922831      -0.04851230 </v>
   <v>      -0.05608975      -0.01538449      -0.28345343 </v>
   <v>      -0.01305552       0.00477262       0.14238633 </v>
   <v>       0.00053666       0.01424969       0.13713525 </v>
   <v>      -0.00021791      -0.00057069      -0.00676410 </v>
   <v>      -0.00905977      -0.02448048       0.03813731 </v>
   <v>      -0.05867326       0.03985096      -0.13514904 </v>
   <v>      -0.00680512      -0.01300559      -0.11518661 </v>
   <v>      -0.35633546       0.06975340      -0.45577736 </v>
   <v>      -0.05754258      -0.25639385       0.63827998 </v>
   <v>       0.01124080       0.00724748       0.12292965 </v>
   <v>       0.00410897       0.01220836       0.14507287 </v>
   <v>       0.00096008      -0.00171760       0.01164553 </v>
   <v>      -0.00224533      -0.00052499      -0.03958217 </v>
   <v>       0.02920546       0.04537670      -0.14891563 </v>
   <v>       0.05729403      -0.00199970      -0.07333355 </v>
   <v>       0.32466992       0.09149610      -0.39292843 </v>
   <v>       0.08433896       0.01623918       0.23376322 </v>
   <v>       0.00187287       0.00027653       0.12400659 </v>
   <v>      -0.00461181       0.01196280       0.15158365 </v>
   <v>       0.01564793      -0.00079457       0.00401573 </v>
   <v>       0.00112200      -0.00146948       0.01431441 </v>
   <v>       0.02956214       0.06885844      -0.07596696 </v>
   <v>      -0.05160420      -0.00342797      -0.07141609 </v>
   <v>       0.01367244      -0.01595408      -0.53538578 </v>
   <v>      -0.02147012       0.01099663      -0.09121119 </v>
   <v>      -0.01009014      -0.01557015       0.00433399 </v>
  </varray>
  <varray name="stress" >
   <v>     -33.12879729       0.26505174      -0.09581457 </v>
   <v>       0.26505179     -34.93247261      -0.04291889 </v>
   <v>      -0.09581476      -0.04291904       1.54631079 </v>
  </varray>
  <energy>
   <i name="e_fr_energy">   -645.47294255 </i>
   <i name="e_wo_entrp">   -645.35401739 </i>
   <i name="e_0_energy">   -645.41347997 </i>
  </energy>
  <time name="totalsc"> 1028.95  249.71</time>
 </calculation>
 <calculation>
  <scstep>
   <time name="dav">   45.02    6.45</time>
   <time name="total">   58.26    8.67</time>
   <energy>
    <i name="alphaZ">    318.41319391 </i>
    <i name="ewald">  30860.13373338 </i>
    <i name="hartreedc"> -44629.67802920 </i>
    <i name="XCdc">    325.51972639 </i>
    <i name="pawpsdc">   5473.40355440 </i>
    <i name="pawaedc">  -4693.60261278 </i>
    <i name="eentropy">     -0.11898152 </i>
    <i name="bandstr">  -1744.09006159 </i>
    <i name="atom">  13444.54662946 </i>
    <i name="e_fr_energy">   -645.47284755 </i>
    <i name="e_wo_entrp">   -645.35386602 </i>
    <i name="e_0_energy">   -645.41335678 </i>
   </energy>
  </scstep>
  <scstep>
   <time name="diag">    3.33    0.67</time>
   <time name="diis">    6.59    2.93</time>
   <time name="orth">    0.13    0.07</time>
   <time name="total">   22.19    5.86</time>
   <energy>
    <i name="e_fr_energy">   -645.47311238 </i>
    <i name="e_wo_entrp">   -645.35413676 </i>
    <i name="e_0_energy">   -645.41362457 </i>
   </energy>
  </scstep>
  <scstep>
   <time name="diag">    3.25    0.66</time>
   <time name="diis">    8.00    3.60</time>
   <time name="orth">    0.13    0.07</time>
   <time name="total">   23.54    6.52</time>
   <energy>
    <i name="e_fr_energy">   -645.47311910 </i>
    <i name="e_wo_entrp">   -645.35414305 </i>
    <i name="e_0_energy">   -645.41363107 </i>
   </energy>
  </scstep>
  <scstep>
   <time name="diag">    3.00    0.66</time>
   <time name="diis">    7.55    3.38</time>
   <time name="orth">    0.13    0.07</time>
   <time name="total">   23.21    6.34</time>
   <energy>
    <i name="e_fr_energy">   -645.47311343 </i>
    <i name="e_wo_entrp">   -645.35414416 </i>
    <i name="e_0_energy">   -645.41362879 </i>
   </energy>
  </scstep>
  <scstep>
   <time name="diag">    3.19    0.66</time>
   <time name="diis">    6.82    3.00</time>
   <time name="orth">    0.13    0.06</time>
   <time name="total">   22.33    5.91</time>
   <energy>
    <i name="e_fr_energy">   -645.47311276 </i>
    <i name="e_wo_entrp">   -645.35414632 </i>
    <i name="e_0_energy">   -645.41362954 </i>
   </energy>
  </scstep>
  <scstep>
   <time name="diag">    3.24    0.66</time>
   <time name="diis">    5.32    2.24</time>
   <time name="orth">    0.13    0.06</time>
   <time name="total">   18.75    4.65</time>
   <energy>
    <i name="alphaZ">    318.41319391 </i>
    <i name="ewald">  30860.13373338 </i>
    <i name="hartreedc"> -44629.77632041 </i>
    <i name="XCdc">    325.52122730 </i>
    <i name="pawpsdc">   5473.64216455 </i>
    <i name="pawaedc">  -4693.84325146 </i>
    <i name="eentropy">     -0.11896813 </i>
    <i name="bandstr">  -1743.99152043 </i>
    <i name="atom">  13444.54662946 </i>
    <i name="e_fr_energy">   -645.47311183 </i>
    <i name="e_wo_entrp">   -645.35414369 </i>
    <i name="e_0_energy">   -645.41362776 </i>
   </energy>
  </scstep>
  <structure>
   <crystal>
    <varray name="basis" >
     <v>       9.28425000       0.00000000       0.00000000 </v>
     <v>       0.00000000      10.72053000       0.00000000 </v>
     <v>       0.00000000       0.00000000      19.49580000 </v>
    </varray>
    <i name="volume">   1940.45753799 </i>
    <varray name="rec_basis" >
     <v>       0.10770929       0.00000000       0.00000000 </v>
     <v>       0.00000000       0.09327897       0.00000000 </v>
     <v>       0.00000000       0.00000000       0.05129310 </v>
    </varray>
   </crystal>
   <varray name="positions" >
    <v>       0.00000000       0.00000000       0.00000000 </v>
    <v>       0.16666700       0.25000000       0.00000000 </v>
    <v>       0.00000000       0.00000000       0.38944500 </v>
    <v>       0.16666700       0.25000000       0.38944500 </v>
    <v>       0.00000000       0.16666600       0.13018000 </v>
    <v>       0.16666700       0.41666600       0.13018000 </v>
    <v>       0.00000000       0.33333400       0.25985200 </v>
    <v>       0.16666700       0.08333300       0.25985200 </v>
    <v>       0.33333300       0.00000000       0.00000000 </v>
    <v>       0.50000000       0.25000000       0.00000000 </v>
    <v>       0.33333300       0.00000000       0.38944500 </v>
    <v>       0.50000000       0.25000000       0.38944500 </v>
    <v>       0.33333300       0.16666600       0.13018000 </v>
    <v>       0.50000000       0.41666600       0.13018000 </v>
    <v>       0.33333300       0.33333400       0.25985200 </v>
    <v>       0.50000000       0.08333300       0.25985200 </v>
    <v>       0.66666700       0.00000000       0.00000000 </v>
    <v>       0.83333300       0.25000000       0.00000000 </v>
    <v>       0.66666700       0.00000000       0.38944500 </v>
    <v>       0.83333300       0.25000000       0.38944500 </v>
    <v>       0.66666700       0.16666600       0.13018000 </v>
    <v>       0.83333300       0.41666600       0.13018000 </v>
    <v>       0.66666700       0.33333400       0.25985200 </v>
    <v>       0.83333300       0.08333400       0.25985200 </v>
    <v>       0.00000000       0.50000000       0.00000000 </v>
    <v>       0.16666700       0.75000000       0.00000000 </v>
    <v>       0.00000000       0.50000000       0.38944500 </v>
    <v>       0.16666700       0.75000000       0.38944500 </v>
    <v>       0.00000000       0.66666600       0.13018000 </v>
    <v>       0.16666700       0.91666600       0.13018000 </v>
    <v>       0.00000000       0.83333400       0.25985200 </v>
    <v>       0.16666700       0.58333400       0.25985200 </v>
    <v>       0.33333300       0.50000000       0.00000000 </v>
    <v>       0.50000000       0.75000000       0.00000000 </v>
    <v>       0.33333300       0.50000000       0.38944500 </v>
    <v>       0.50000000       0.75000000       0.38944500 </v>
    <v>       0.33333300       0.66666600       0.13018000 </v>
    <v>       0.50000000       0.91666700       0.13018000 </v>
    <v>       0.33333300       0.83333400       0.25985200 </v>
    <v>       0.50000000       0.58333400       0.25985200 </v>
    <v>       0.66666700       0.50000000       0.00000000 </v>
    <v>       0.83333300       0.75000000       0.00000000 </v>
    <v>       0.66666700       0.50000000       0.38944500 </v>
    <v>       0.83333300       0.75000000       0.38944500 </v>
    <v>       0.66666700       0.66666600       0.13018000 </v>
    <v>       0.83333300       0.91666700       0.13018000 </v>
    <v>       0.66666700       0.83333400       0.25985200 </v>
    <v>       0.83333300       0.58333400       0.25985200 </v>
    <v>       0.17083433       0.73459770       0.55029113 </v>
    <v>       0.00000000       0.00000000       0.09762400 </v>
    <v>       0.16666700       0.25000000       0.09762400 </v>
    <v>       0.97514106       0.98964964       0.48650368 </v>
    <v>       0.16289736       0.25490150       0.48614392 </v>
    <v>       0.00000000       0.16666600       0.22753200 </v>
    <v>       0.16666700       0.41666600       0.22753200 </v>
    <v>       0.00000000       0.33333400       0.35720700 </v>
    <v>       0.16666700       0.08333300       0.35720700 </v>
    <v>       0.33333300       0.00000000       0.09762400 </v>
    <v>       0.50000000       0.25000000       0.09762400 </v>
    <v>       0.35403072       0.99180230       0.48614708 </v>
    <v>       0.49146691       0.25158241       0.48688166 </v>
    <v>       0.33333300       0.16666600       0.22753200 </v>
    <v>       0.50000000       0.41666600       0.22753200 </v>
    <v>       0.33333300       0.33333400       0.35720700 </v>
    <v>       0.50000000       0.08333300       0.35720700 </v>
    <v>       0.66666700       0.00000000       0.09762400 </v>
    <v>       0.83333300       0.25000000       0.09762400 </v>
    <v>       0.66892725       0.98624364       0.48639446 </v>
    <v>       0.84161341       0.25702510       0.48690512 </v>
    <v>       0.66666700       0.16666600       0.22753200 </v>
    <v>       0.83333300       0.41666600       0.22753200 </v>
    <v>       0.66666700       0.33333400       0.35720700 </v>
    <v>       0.83333300       0.08333400       0.35720700 </v>
    <v>       0.00000000       0.50000000       0.09762400 </v>
    <v>       0.16666700       0.75000000       0.09762400 </v>
    <v>       0.99133239       0.47527756       0.48632012 </v>
    <v>       0.16444597       0.82700856       0.48225595 </v>
    <v>       0.00000000       0.66666600       0.22753200 </v>
    <v>       0.16666700       0.91666600       0.22753200 </v>
    <v>       0.00000000       0.83333400       0.35720700 </v>
    <v>       0.16666700       0.58333400       0.35720700 </v>
    <v>       0.33333300       0.50000000       0.09762400 </v>
    <v>       0.50000000       0.75000000       0.09762400 </v>
    <v>       0.33223437       0.46888734       0.48696125 </v>
    <v>       0.52338145       0.76566893       0.48686004 </v>
    <v>       0.33333300       0.66666600       0.22753200 </v>
    <v>       0.50000000       0.91666700       0.22753200 </v>
    <v>       0.33333300       0.83333400       0.35720700 </v>
    <v>       0.50000000       0.58333400       0.35720700 </v>
    <v>       0.66666700       0.50000000       0.09762400 </v>
    <v>       0.83333300       0.75000000       0.09762400 </v>
    <v>       0.67893788       0.50223813       0.48692406 </v>
    <v>       0.81252935       0.75809129       0.48608152 </v>
    <v>       0.66666700       0.66666600       0.22753200 </v>
    <v>       0.83333300       0.91666700       0.22753200 </v>
    <v>       0.66666700       0.83333400       0.35720700 </v>
    <v>       0.83333300       0.58333400       0.35720700 </v>
    <v>       0.36216411       0.64212966       0.63830473 </v>
   </varray>
  </structure>
  <varray name="forces" >
   <v>      -0.00362707      -0.00131520      -0.17455453 </v>
   <v>       0.00217181      -0.00187901      -0.19036747 </v>
   <v>      -0.35567277      -0.08337847      -0.08746040 </v>
   <v>      -0.06265708      -0.08889408      -0.18949883 </v>
   <v>       0.01220891      -0.00130655       0.05741955 </v>
   <v>      -0.00150120       0.02938471       0.08078367 </v>
   <v>       0.01708885       0.00862928      -0.00606711 </v>
   <v>       0.00137147      -0.05745889       0.15502848 </v>
   <v>       0.00384628      -0.00448104      -0.18319901 </v>
   <v>       0.00286989       0.00172794      -0.18943682 </v>
   <v>       0.29781315      -0.01406299      -0.21031306 </v>
   <v>      -0.11479154      -0.10130672       0.20330926 </v>
   <v>      -0.00549866      -0.00299809       0.06399748 </v>
[...]
    <i name="e_wo_entrp">   -645.35444162 </i>
    <i name="e_0_energy">   -645.41386074 </i>
   </energy>
  </scstep>
  <scstep>
   <time name="diag">    3.25    0.66</time>
   <time name="diis">    6.58    2.88</time>
   <time name="orth">    0.13    0.06</time>
   <time name="total">   22.25    5.86</time>
   <energy>
    <i name="e_fr_energy">   -645.47330158 </i>
    <i name="e_wo_entrp">   -645.35450855 </i>
    <i name="e_0_energy">   -645.41390506 </i>
   </energy>
  </scstep>
  <scstep>
   <time name="diag">    3.28    0.66</time>
   <time name="diis">    4.97    2.07</time>
   <time name="orth">    0.13    0.06</time>
   <time name="total">   20.62    5.00</time>
   <energy>
    <i name="e_fr_energy">   -645.47330704 </i>
    <i name="e_wo_entrp">   -645.35448220 </i>
    <i name="e_0_energy">   -645.41389462 </i>
   </energy>
  </scstep>
  <scstep>
   <time name="diag">    3.24    0.65</time>
   <time name="diis">    4.48    1.82</time>
   <time name="orth">    0.13    0.06</time>
   <time name="total">   20.02    4.74</time>
   <energy>
    <i name="e_fr_energy">   -645.47331698 </i>
    <i name="e_wo_entrp">   -645.35450180 </i>
    <i name="e_0_energy">   -645.41390939 </i>
   </energy>
  </scstep>
  <scstep>
   <time name="diag">    3.28    0.65</time>
   <time name="diis">    4.17    1.68</time>
   <time name="orth">    0.13    0.06</time>
   <time name="total">   19.85    4.61</time>
   <energy>
    <i name="e_fr_energy">   -645.47331937 </i>
    <i name="e_wo_entrp">   -645.35450395 </i>
    <i name="e_0_energy">   -645.41391166 </i>
   </energy>
  </scstep>
  <scstep>
   <time name="diag">    3.25    0.66</time>
   <time name="diis">    3.91    1.55</time>
   <time name="orth">    0.13    0.06</time>
   <time name="total">   19.53    4.47</time>
   <energy>
    <i name="e_fr_energy">   -645.47332082 </i>
    <i name="e_wo_entrp">   -645.35450479 </i>
    <i name="e_0_energy">   -645.41391281 </i>
   </energy>
  </scstep>
  <scstep>
   <time name="diag">    3.24    0.66</time>
   <time name="diis">    3.85    1.51</time>
   <time name="orth">    0.13    0.06</time>
   <time name="total">   19.62    4.46</time>
   <energy>
    <i name="e_fr_energy">   -645.47332264 </i>
    <i name="e_wo_entrp">   -645.35450666 </i>
    <i name="e_0_energy">   -645.41391465 </i>
   </energy>
  </scstep>
  <scstep>
   <time name="diag">    3.24    0.66</time>
   <time name="diis">    3.78    1.47</time>
   <time name="orth">    0.13    0.06</time>
   <time name="total">   19.43    4.40</time>
   <energy>
    <i name="e_fr_energy">   -645.47332464 </i>
    <i name="e_wo_entrp">   -645.35450854 </i>
    <i name="e_0_energy">   -645.41391659 </i>
   </energy>
  </scstep>
  <scstep>
   <time name="diag">    3.24    0.66</time>
   <time name="diis">    3.84    1.50</time>
   <time name="orth">    0.13    0.06</time>
   <time name="total">   19.56    4.45</time>
   <energy>
    <i name="e_fr_energy">   -645.47332729 </i>
    <i name="e_wo_entrp">   -645.35451108 </i>
    <i name="e_0_energy">   -645.41391918 </i>
   </energy>
  </scstep>
  <scstep>
   <time name="diag">    3.25    0.66</time>
   <time name="diis">    3.41    1.29</time>
   <time name="orth">    0.13    0.06</time>
   <time name="total">   16.81    3.69</time>
   <energy>
    <i name="alphaZ">    318.41319391 </i>
    <i name="ewald">  30862.42824000 </i>
    <i name="hartreedc"> -44632.09462369 </i>
    <i name="XCdc">    325.53013789 </i>
    <i name="pawpsdc">   5473.56452882 </i>
    <i name="pawaedc">  -4693.76494640 </i>
    <i name="eentropy">     -0.11881629 </i>
    <i name="bandstr">  -1743.97767136 </i>
    <i name="atom">  13444.54662946 </i>
    <i name="e_fr_energy">   -645.47332766 </i>
    <i name="e_wo_entrp">   -645.35451137 </i>
    <i name="e_0_energy">   -645.41391952 </i>
   </energy>
  </scstep>
  <structure>
   <crystal>
    <varray name="basis" >
     <v>       9.28425000       0.00000000       0.00000000 </v>
     <v>       0.00000000      10.72053000       0.00000000 </v>
     <v>       0.00000000       0.00000000      19.49580000 </v>
    </varray>
    <i name="volume">   1940.45753799 </i>
    <varray name="rec_basis" >
     <v>       0.10770929       0.00000000       0.00000000 </v>
     <v>       0.00000000       0.09327897       0.00000000 </v>
     <v>       0.00000000       0.00000000       0.05129310 </v>
    </varray>
   </crystal>
   <varray name="positions" >
    <v>       0.00000000       0.00000000       0.00000000 </v>
    <v>       0.16666700       0.25000000       0.00000000 </v>
    <v>       0.00000000       0.00000000       0.38944500 </v>
    <v>       0.16666700       0.25000000       0.38944500 </v>
    <v>       0.00000000       0.16666600       0.13018000 </v>
    <v>       0.16666700       0.41666600       0.13018000 </v>
    <v>       0.00000000       0.33333400       0.25985200 </v>
    <v>       0.16666700       0.08333300       0.25985200 </v>
    <v>       0.33333300       0.00000000       0.00000000 </v>
    <v>       0.50000000       0.25000000       0.00000000 </v>
    <v>       0.33333300       0.00000000       0.38944500 </v>
    <v>       0.50000000       0.25000000       0.38944500 </v>
    <v>       0.33333300       0.16666600       0.13018000 </v>
    <v>       0.50000000       0.41666600       0.13018000 </v>
    <v>       0.33333300       0.33333400       0.25985200 </v>
    <v>       0.50000000       0.08333300       0.25985200 </v>
    <v>       0.66666700       0.00000000       0.00000000 </v>
    <v>       0.83333300       0.25000000       0.00000000 </v>
    <v>       0.66666700       0.00000000       0.38944500 </v>
    <v>       0.83333300       0.25000000       0.38944500 </v>
    <v>       0.66666700       0.16666600       0.13018000 </v>
    <v>       0.83333300       0.41666600       0.13018000 </v>
    <v>       0.66666700       0.33333400       0.25985200 </v>
    <v>       0.83333300       0.08333400       0.25985200 </v>
    <v>       0.00000000       0.50000000       0.00000000 </v>
    <v>       0.16666700       0.75000000       0.00000000 </v>
    <v>       0.00000000       0.50000000       0.38944500 </v>
    <v>       0.16666700       0.75000000       0.38944500 </v>
    <v>       0.00000000       0.66666600       0.13018000 </v>
    <v>       0.16666700       0.91666600       0.13018000 </v>
    <v>       0.00000000       0.83333400       0.25985200 </v>
    <v>       0.16666700       0.58333400       0.25985200 </v>
    <v>       0.33333300       0.50000000       0.00000000 </v>
    <v>       0.50000000       0.75000000       0.00000000 </v>
    <v>       0.33333300       0.50000000       0.38944500 </v>
    <v>       0.50000000       0.75000000       0.38944500 </v>
    <v>       0.33333300       0.66666600       0.13018000 </v>
    <v>       0.50000000       0.91666700       0.13018000 </v>
    <v>       0.33333300       0.83333400       0.25985200 </v>
    <v>       0.50000000       0.58333400       0.25985200 </v>
    <v>       0.66666700       0.50000000       0.00000000 </v>
    <v>       0.83333300       0.75000000       0.00000000 </v>
    <v>       0.66666700       0.50000000       0.38944500 </v>
    <v>       0.83333300       0.75000000       0.38944500 </v>
    <v>       0.66666700       0.66666600       0.13018000 </v>
    <v>       0.83333300       0.91666700       0.13018000 </v>
    <v>       0.66666700       0.83333400       0.25985200 </v>
    <v>       0.83333300       0.58333400       0.25985200 </v>
    <v>       0.17052245       0.73465524       0.55027669 </v>
    <v>       0.00000000       0.00000000       0.09762400 </v>
    <v>       0.16666700       0.25000000       0.09762400 </v>
    <v>       0.97511793       0.98901429       0.48648783 </v>
    <v>       0.16260250       0.25484113       0.48613971 </v>
    <v>       0.00000000       0.16666600       0.22753200 </v>
    <v>       0.16666700       0.41666600       0.22753200 </v>
    <v>       0.00000000       0.33333400       0.35720700 </v>
    <v>       0.16666700       0.08333300       0.35720700 </v>
    <v>       0.33333300       0.00000000       0.09762400 </v>
    <v>       0.50000000       0.25000000       0.09762400 </v>
    <v>       0.35435983       0.99192883       0.48616795 </v>
    <v>       0.49111730       0.25150766       0.48687946 </v>
    <v>       0.33333300       0.16666600       0.22753200 </v>
    <v>       0.50000000       0.41666600       0.22753200 </v>
    <v>       0.33333300       0.33333400       0.35720700 </v>
    <v>       0.50000000       0.08333300       0.35720700 </v>
    <v>       0.66666700       0.00000000       0.09762400 </v>
    <v>       0.83333300       0.25000000       0.09762400 </v>
    <v>       0.66818743       0.98573714       0.48641147 </v>
    <v>       0.84164505       0.25722048       0.48691708 </v>
    <v>       0.66666700       0.16666600       0.22753200 </v>
    <v>       0.83333300       0.41666600       0.22753200 </v>
    <v>       0.66666700       0.33333400       0.35720700 </v>
    <v>       0.83333300       0.08333400       0.35720700 </v>
    <v>       0.00000000       0.50000000       0.09762400 </v>
    <v>       0.16666700       0.75000000       0.09762400 </v>
    <v>       0.99139481       0.47520039       0.48627740 </v>
    <v>       0.16476634       0.82715715       0.48214301 </v>
    <v>       0.00000000       0.66666600       0.22753200 </v>
    <v>       0.16666700       0.91666600       0.22753200 </v>
    <v>       0.00000000       0.83333400       0.35720700 </v>
    <v>       0.16666700       0.58333400       0.35720700 </v>
    <v>       0.33333300       0.50000000       0.09762400 </v>
    <v>       0.50000000       0.75000000       0.09762400 </v>
    <v>       0.33215624       0.46886243       0.48699765 </v>
    <v>       0.52308381       0.76549790       0.48678018 </v>
    <v>       0.33333300       0.66666600       0.22753200 </v>
    <v>       0.50000000       0.91666700       0.22753200 </v>
    <v>       0.33333300       0.83333400       0.35720700 </v>
    <v>       0.50000000       0.58333400       0.35720700 </v>
    <v>       0.66666700       0.50000000       0.09762400 </v>
    <v>       0.83333300       0.75000000       0.09762400 </v>
    <v>       0.68022716       0.50226767       0.48692617 </v>
    <v>       0.81239903       0.75787088       0.48609823 </v>
    <v>       0.66666700       0.66666600       0.22753200 </v>
    <v>       0.83333300       0.91666700       0.22753200 </v>
    <v>       0.66666700       0.83333400       0.35720700 </v>
    <v>       0.83333300       0.58333400       0.35720700 </v>
    <v>       0.36277300       0.64242376       0.63823878 </v>
   </varray>
  </structure>
  <varray name="forces" >
   <v>      -0.00374040      -0.00129417      -0.17450410 </v>
   <v>       0.00221151      -0.00193995      -0.19069798 </v>
   <v>      -0.35962363      -0.09151382      -0.08617962 </v>
   <v>      -0.06800612      -0.08909144      -0.19152987 </v>
   <v>       0.01208668      -0.00146223       0.05687112 </v>
   <v>      -0.00151684       0.02931476       0.08009529 </v>
   <v>       0.01699135       0.00868552      -0.00807003 </v>
   <v>       0.00085238      -0.05797310       0.15516067 </v>
   <v>       0.00381349      -0.00464324      -0.18369521 </v>
   <v>       0.00278157       0.00177410      -0.18949450 </v>
   <v>       0.30117653      -0.01304610      -0.20932505 </v>
   <v>      -0.11966240      -0.10235300       0.20657841 </v>
   <v>      -0.00569950      -0.00325246       0.06348093 </v>
   <v>       0.00039143       0.00239140       0.08237518 </v>
   <v>      -0.00324433      -0.00900392       0.01344956 </v>
   <v>       0.02343553       0.03121465       0.07445437 </v>
   <v>      -0.00075538      -0.00605405      -0.18654878 </v>
   <v>      -0.00321181      -0.00372767      -0.18545556 </v>
   <v>       0.05778784      -0.07900795      -0.10619286 </v>
   <v>       0.11694308      -0.01371706       0.14275718 </v>
   <v>      -0.00391176       0.01344060       0.04653796 </v>
   <v>      -0.00162922       0.00179953       0.06860999 </v>
   <v>      -0.02049296       0.00877601       0.12289058 </v>
   <v>      -0.01894618       0.04915713       0.07193715 </v>
   <v>       0.00606541      -0.00495302      -0.19224838 </v>
   <v>       0.00295804      -0.00765617      -0.19981207 </v>
   <v>      -0.01455094      -0.26296922       0.08829737 </v>
   <v>      -0.00566404       0.87908883       1.20575261 </v>
   <v>       0.00888632      -0.01868199       0.07710345 </v>
   <v>      -0.00127752      -0.00165259       0.07104514 </v>
   <v>       0.04976046      -0.05151687       0.09256534 </v>
   <v>       0.02272893       0.16684073       0.26000740 </v>
   <v>      -0.00095816      -0.00280407      -0.18928014 </v>
   <v>      -0.00024552      -0.00909138      -0.19657758 </v>
   <v>      -0.05558627      -0.45818487       0.44696713 </v>
   <v>       0.21157667       0.18661480       0.14128430 </v>
   <v>      -0.00111233      -0.01471920       0.08493466 </v>
   <v>      -0.01407160      -0.01073872       0.04181522 </v>
   <v>      -0.03918655      -0.05653145       0.10308260 </v>
   <v>      -0.04446562      -0.00377063       0.16147794 </v>
   <v>      -0.00302170      -0.00527087      -0.17529730 </v>
   <v>      -0.00331476      -0.00590376      -0.19855466 </v>
   <v>       0.14768236       0.04889542       0.19395608 </v>
   <v>      -0.18802515       0.06180034      -0.17164187 </v>
   <v>      -0.00685786      -0.01017215       0.06372092 </v>
   <v>       0.01593093      -0.00492103       0.04087351 </v>
   <v>      -0.00026093       0.03455731      -0.05718856 </v>
   <v>       0.03387562       0.00009725       0.07956964 </v>
   <v>      -0.00374809      -0.00627372       0.00842745 </v>
   <v>       0.00428199       0.00291324       0.14272388 </v>
   <v>      -0.00153196       0.00136773       0.14871405 </v>
   <v>       0.00032317       0.00333936      -0.00040997 </v>
   <v>      -0.00156752       0.00268038      -0.00011162 </v>
   <v>      -0.03841068       0.00757409      -0.08428421 </v>
   <v>      -0.01009574      -0.10266560      -0.07544820 </v>
   <v>       0.00329040      -0.01764782      -0.37814791 </v>
   <v>      -0.01969724       0.06605139       0.14307036 </v>
   <v>      -0.00711731       0.00667321       0.13644988 </v>
   <v>       0.00443179       0.00295771       0.15068316 </v>
   <v>       0.00041705      -0.00214245      -0.00078756 </v>
   <v>      -0.00088514      -0.00347417       0.00112484 </v>
   <v>       0.03401683       0.00387228      -0.09422814 </v>
   <v>      -0.02183802      -0.03376092      -0.09907544 </v>
   <v>      -0.06109165      -0.03315998      -0.35794115 </v>
   <v>       0.06278462      -0.05154244      -0.29417470 </v>
   <v>       0.00405619       0.00642751       0.15687746 </v>
   <v>      -0.00455823       0.00464629       0.14669655 </v>
   <v>       0.00294203       0.00276193       0.00094359 </v>
   <v>       0.00039906      -0.00034800       0.00045364 </v>
   <v>       0.00397417      -0.04187736      -0.09779280 </v>
   <v>       0.03218382      -0.00170454      -0.08551109 </v>
   <v>       0.05582350      -0.00751834      -0.04441494 </v>
   <v>      -0.05717198      -0.01650099      -0.26879055 </v>
   <v>      -0.01306749       0.00471869       0.14289772 </v>
   <v>       0.00061002       0.01419394       0.13734889 </v>
   <v>       0.00157432      -0.00070584      -0.00131009 </v>
   <v>      -0.00154497      -0.00069504       0.00124979 </v>
   <v>      -0.05944551       0.03959615      -0.13458345 </v>
   <v>      -0.00683613      -0.01348896      -0.11420635 </v>
   <v>      -0.35569581       0.06889149      -0.45560153 </v>
   <v>      -0.05662990      -0.25690885       0.63837441 </v>
   <v>       0.01124741       0.00717889       0.12282505 </v>
   <v>       0.00408489       0.01215558       0.14515725 </v>
   <v>      -0.00490516       0.00002396       0.00001640 </v>
   <v>      -0.00086925       0.00207848      -0.00104893 </v>
   <v>       0.02798384       0.04549273      -0.14827316 </v>
   <v>       0.05701164      -0.00153770      -0.07261607 </v>
   <v>       0.32027644       0.09539205      -0.39887221 </v>
   <v>       0.08583694       0.01047175       0.23912897 </v>
   <v>       0.00175837       0.00031917       0.12410700 </v>
   <v>      -0.00454735       0.01174267       0.15210288 </v>
   <v>       0.00046882       0.00163486       0.00129257 </v>
   <v>      -0.00281952      -0.00021309      -0.00050341 </v>
   <v>       0.03115057       0.06850561      -0.07540282 </v>
   <v>      -0.05135018      -0.00427070      -0.07059250 </v>
   <v>       0.01927812      -0.01211564      -0.53812788 </v>
   <v>      -0.02134009       0.01095367      -0.09952849 </v>
   <v>      -0.01233771      -0.01289287       0.00576180 </v>
  </varray>
  <varray name="stress" >
   <v>     -33.11590018       0.23838735      -0.09947489 </v>
   <v>       0.23838726     -34.84396662      -0.01877224 </v>
   <v>      -0.09947471      -0.01877251       1.57378126 </v>
  </varray>
  <energy>
   <i name="e_fr_energy">   -645.47332766 </i>
   <i name="e_wo_entrp">   -645.35451137 </i>
   <i name="e_0_energy">   -645.41391952 </i>
  </energy>
  <time name="totalsc">  312.33   69.66</time>
 </calculation>
 <calculation>
  <scstep>
   <time name="dav">   45.80    6.57</time>
   <time name="total">   58.60    8.77</time>
   <energy>
    <i name="alphaZ">    318.41319391 </i>
    <i name="ewald">  30859.45755410 </i>
    <i name="hartreedc"> -44629.16747587 </i>
    <i name="XCdc">    325.52539089 </i>
    <i name="pawpsdc">   5473.56450503 </i>
    <i name="pawaedc">  -4693.76493086 </i>
    <i name="eentropy">     -0.11891077 </i>
    <i name="bandstr">  -1743.92872956 </i>
    <i name="atom">  13444.54662946 </i>
    <i name="e_fr_energy">   -645.47277368 </i>
    <i name="e_wo_entrp">   -645.35386291 </i>
    <i name="e_0_energy">   -645.41331829 </i>
   </energy>
  </scstep>
  <scstep>
   <time name="diag">    3.18    0.66</time>
   <time name="diis">    6.44    2.83</time>
   <time name="orth">    0.13    0.07</time>
   <time name="total">   21.98    5.75</time>
   <energy>
    <i name="e_fr_energy">   -645.47337947 </i>
    <i name="e_wo_entrp">   -645.35459380 </i>
    <i name="e_0_energy">   -645.41398663 </i>
   </energy>
  </scstep>
  <scstep>
   <time name="diag">    3.44    0.69</time>
   <time name="diis">    7.59    3.47</time>
   <time name="orth">    0.14    0.07</time>
   <time name="total">   23.31    6.41</time>
   <energy>
    <i name="e_fr_energy">   -645.47347647 </i>
    <i name="e_wo_entrp">   -645.35459379 </i>
    <i name="e_0_energy">   -645.41403513 </i>
   </energy>
  </scstep>
  <scstep>
   <time name="diag">    3.23    0.66</time>
   <time name="diis">    7.49    3.32</time>
   <time name="orth">    0.13    0.06</time>
   <time name="total">   23.00    6.23</time>
   <energy>
    <i name="e_fr_energy">   -645.47349175 </i>
    <i name="e_wo_entrp">   -645.35468620 </i>
    <i name="e_0_energy">   -645.41408897 </i>
   </energy>
  </scstep>
  <scstep>
   <time name="diag">    3.24    0.66</time>
   <time name="diis">    5.62    2.40</time>
   <time name="orth">    0.13    0.07</time>
   <time name="total">   21.17    5.32</time>
   <energy>
    <i name="e_fr_energy">   -645.47351781 </i>
    <i name="e_wo_entrp">   -645.35468122 </i>
    <i name="e_0_energy">   -645.41409952 </i>
   </energy>
  </scstep>
  <scstep>
   <time name="diag">    3.21    0.66</time>
   <time name="diis">    4.76    1.98</time>
   <time name="orth">    0.13    0.07</time>
   <time name="total">   20.35    4.90</time>
   <energy>
    <i name="e_fr_energy">   -645.47352422 </i>
    <i name="e_wo_entrp">   -645.35468814 </i>
    <i name="e_0_energy">   -645.41410618 </i>
   </energy>
  </scstep>
  <scstep>
