ni3al                                   
           1
     9.284250    0.000000    0.000000
     0.000000   10.720530    0.000000
     0.000000    0.000000   19.495800
   C    F    Si   K 
    48     1    48     1
Direct configuration=     1
   0.00000000  0.00000000  0.00000000
   0.16666700  0.25000000  0.00000000
   0.00000000  0.00000000  0.38944500
   0.16666700  0.25000000  0.38944500
   0.00000000  0.16666600  0.13018000
   0.16666700  0.41666600  0.13018000
   0.00000000  0.33333400  0.25985200
   0.16666700  0.08333300  0.25985200
   0.33333300  0.00000000  0.00000000
   0.50000000  0.25000000  0.00000000
   0.33333300  0.00000000  0.38944500
   0.50000000  0.25000000  0.38944500
   0.33333300  0.16666600  0.13018000
   0.50000000  0.41666600  0.13018000
   0.33333300  0.33333400  0.25985200
   0.50000000  0.08333300  0.25985200
   0.66666700  0.00000000  0.00000000
   0.83333300  0.25000000  0.00000000
   0.66666700  0.00000000  0.38944500
   0.83333300  0.25000000  0.38944500
   0.66666700  0.16666600  0.13018000
   0.83333300  0.41666600  0.13018000
   0.66666700  0.33333400  0.25985200
   0.83333300  0.08333400  0.25985200
   0.00000000  0.50000000  0.00000000
   0.16666700  0.75000000  0.00000000
   0.00000000  0.50000000  0.38944500
   0.16666700  0.75000000  0.38944500
   0.00000000  0.66666600  0.13018000
   0.16666700  0.91666600  0.13018000
   0.00000000  0.83333400  0.25985200
   0.16666700  0.58333400  0.25985200
   0.33333300  0.50000000  0.00000000
   0.50000000  0.75000000  0.00000000
   0.33333300  0.50000000  0.38944500
   0.50000000  0.75000000  0.38944500
   0.33333300  0.66666600  0.13018000
   0.50000000  0.91666700  0.13018000
   0.33333300  0.83333400  0.25985200
   0.50000000  0.58333400  0.25985200
   0.66666700  0.50000000  0.00000000
   0.83333300  0.75000000  0.00000000
   0.66666700  0.50000000  0.38944500
   0.83333300  0.75000000  0.38944500
   0.66666700  0.66666600  0.13018000
   0.83333300  0.91666700  0.13018000
   0.66666700  0.83333400  0.25985200
   0.83333300  0.58333400  0.25985200
   0.17090945  0.73445765  0.55038769
   0.00000000  0.00000000  0.09762400
   0.16666700  0.25000000  0.09762400
   0.97509757  0.98975409  0.48651054
   0.16290199  0.25491351  0.48615200
   0.00000000  0.16666600  0.22753200
   0.16666700  0.41666600  0.22753200
   0.00000000  0.33333400  0.35720700
   0.16666700  0.08333300  0.35720700
   0.33333300  0.00000000  0.09762400
   0.50000000  0.25000000  0.09762400
   0.35398390  0.99179065  0.48610199
   0.49148346  0.25158573  0.48688550
   0.33333300  0.16666600  0.22753200
   0.50000000  0.41666600  0.22753200
   0.33333300  0.33333400  0.35720700
   0.50000000  0.08333300  0.35720700
   0.66666700  0.00000000  0.09762400
   0.83333300  0.25000000  0.09762400
   0.66900621  0.98630041  0.48633957
   0.84161702  0.25702906  0.48690091
   0.66666700  0.16666600  0.22753200
   0.83333300  0.41666600  0.22753200
   0.66666700  0.33333400  0.35720700
   0.83333300  0.08333400  0.35720700
   0.00000000  0.50000000  0.09762400
   0.16666700  0.75000000  0.09762400
   0.99133352  0.47528013  0.48633686
   0.16449305  0.82711873  0.48216158
   0.00000000  0.66666600  0.22753200
   0.16666700  0.91666600  0.22753200
   0.00000000  0.83333400  0.35720700
   0.16666700  0.58333400  0.35720700
   0.33333300  0.50000000  0.09762400
   0.50000000  0.75000000  0.09762400
   0.33222938  0.46889507  0.48693243
   0.52339312  0.76567129  0.48695799
   0.33333300  0.66666600  0.22753200
   0.50000000  0.91666700  0.22753200
   0.33333300  0.83333400  0.35720700
   0.50000000  0.58333400  0.35720700
   0.66666700  0.50000000  0.09762400
   0.83333300  0.75000000  0.09762400
   0.67885657  0.50224170  0.48691412
   0.81252352  0.75809790  0.48604610
   0.66666700  0.66666600  0.22753200
   0.83333300  0.91666700  0.22753200
   0.66666700  0.83333400  0.35720700
   0.83333300  0.58333400  0.35720700
   0.36221654  0.64219973  0.63829400
Direct configuration=     2
   0.00000000  0.00000000  0.00000000
   0.16666700  0.25000000  0.00000000
   0.00000000  0.00000000  0.38944500
   0.16666700  0.25000000  0.38944500
   0.00000000  0.16666600  0.13018000
   0.16666700  0.41666600  0.13018000
   0.00000000  0.33333400  0.25985200
   0.16666700  0.08333300  0.25985200
   0.33333300  0.00000000  0.00000000
   0.50000000  0.25000000  0.00000000
   0.33333300  0.00000000  0.38944500
   0.50000000  0.25000000  0.38944500
   0.33333300  0.16666600  0.13018000
   0.50000000  0.41666600  0.13018000
   0.33333300  0.33333400  0.25985200
   0.50000000  0.08333300  0.25985200
   0.66666700  0.00000000  0.00000000
   0.83333300  0.25000000  0.00000000
   0.66666700  0.00000000  0.38944500
   0.83333300  0.25000000  0.38944500
   0.66666700  0.16666600  0.13018000
   0.83333300  0.41666600  0.13018000
   0.66666700  0.33333400  0.25985200
   0.83333300  0.08333400  0.25985200
   0.00000000  0.50000000  0.00000000
   0.16666700  0.75000000  0.00000000
   0.00000000  0.50000000  0.38944500
   0.16666700  0.75000000  0.38944500
   0.00000000  0.66666600  0.13018000
   0.16666700  0.91666600  0.13018000
   0.00000000  0.83333400  0.25985200
   0.16666700  0.58333400  0.25985200
   0.33333300  0.50000000  0.00000000
   0.50000000  0.75000000  0.00000000
   0.33333300  0.50000000  0.38944500
   0.50000000  0.75000000  0.38944500
   0.33333300  0.66666600  0.13018000
   0.50000000  0.91666700  0.13018000
   0.33333300  0.83333400  0.25985200
   0.50000000  0.58333400  0.25985200
   0.66666700  0.50000000  0.00000000
   0.83333300  0.75000000  0.00000000
   0.66666700  0.50000000  0.38944500
   0.83333300  0.75000000  0.38944500
   0.66666700  0.66666600  0.13018000
   0.83333300  0.91666700  0.13018000
   0.66666700  0.83333400  0.25985200
   0.83333300  0.58333400  0.25985200
   0.17083433  0.73459770  0.55029113
   0.00000000  0.00000000  0.09762400
   0.16666700  0.25000000  0.09762400
   0.97514106  0.98964964  0.48650368
   0.16289736  0.25490150  0.48614392
   0.00000000  0.16666600  0.22753200
   0.16666700  0.41666600  0.22753200
   0.00000000  0.33333400  0.35720700
   0.16666700  0.08333300  0.35720700
   0.33333300  0.00000000  0.09762400
   0.50000000  0.25000000  0.09762400
   0.35403072  0.99180230  0.48614708
   0.49146691  0.25158241  0.48688166
   0.33333300  0.16666600  0.22753200
   0.50000000  0.41666600  0.22753200
   0.33333300  0.33333400  0.35720700
   0.50000000  0.08333300  0.35720700
   0.66666700  0.00000000  0.09762400
   0.83333300  0.25000000  0.09762400
   0.66892725  0.98624364  0.48639446
   0.84161341  0.25702510  0.48690512
   0.66666700  0.16666600  0.22753200
   0.83333300  0.41666600  0.22753200
   0.66666700  0.33333400  0.35720700
   0.83333300  0.08333400  0.35720700
   0.00000000  0.50000000  0.09762400
   0.16666700  0.75000000  0.09762400
   0.99133239  0.47527756  0.48632012
   0.16444597  0.82700856  0.48225595
   0.00000000  0.66666600  0.22753200
   0.16666700  0.91666600  0.22753200
   0.00000000  0.83333400  0.35720700
   0.16666700  0.58333400  0.35720700
   0.33333300  0.50000000  0.09762400
   0.50000000  0.75000000  0.09762400
   0.33223437  0.46888734  0.48696125
   0.52338145  0.76566893  0.48686004
   0.33333300  0.66666600  0.22753200
   0.50000000  0.91666700  0.22753200
   0.33333300  0.83333400  0.35720700
   0.50000000  0.58333400  0.35720700
   0.66666700  0.50000000  0.09762400
   0.83333300  0.75000000  0.09762400
   0.67893788  0.50223813  0.48692406
   0.81252935  0.75809129  0.48608152
   0.66666700  0.66666600  0.22753200
   0.83333300  0.91666700  0.22753200
   0.66666700  0.83333400  0.35720700
   0.83333300  0.58333400  0.35720700
   0.36216411  0.64212966  0.63830473
Direct configuration=     3
   0.00000000  0.00000000  0.00000000
   0.16666700  0.25000000  0.00000000
   0.00000000  0.00000000  0.38944500
   0.16666700  0.25000000  0.38944500
   0.00000000  0.16666600  0.13018000
   0.16666700  0.41666600  0.13018000
   0.00000000  0.33333400  0.25985200
   0.16666700  0.08333300  0.25985200
   0.33333300  0.00000000  0.00000000
   0.50000000  0.25000000  0.00000000
   0.33333300  0.00000000  0.38944500
   0.50000000  0.25000000  0.38944500
   0.33333300  0.16666600  0.13018000
   0.50000000  0.41666600  0.13018000
   0.33333300  0.33333400  0.25985200
   0.50000000  0.08333300  0.25985200
   0.66666700  0.00000000  0.00000000
   0.83333300  0.25000000  0.00000000
   0.66666700  0.00000000  0.38944500
   0.83333300  0.25000000  0.38944500
   0.66666700  0.16666600  0.13018000
   0.83333300  0.41666600  0.13018000
   0.66666700  0.33333400  0.25985200
   0.83333300  0.08333400  0.25985200
   0.00000000  0.50000000  0.00000000
   0.16666700  0.75000000  0.00000000
   0.00000000  0.50000000  0.38944500
   0.16666700  0.75000000  0.38944500
   0.00000000  0.66666600  0.13018000
   0.16666700  0.91666600  0.13018000
   0.00000000  0.83333400  0.25985200
   0.16666700  0.58333400  0.25985200
   0.33333300  0.50000000  0.00000000
   0.50000000  0.75000000  0.00000000
   0.33333300  0.50000000  0.38944500
   0.50000000  0.75000000  0.38944500
   0.33333300  0.66666600  0.13018000
   0.50000000  0.91666700  0.13018000
   0.33333300  0.83333400  0.25985200
   0.50000000  0.58333400  0.25985200
   0.66666700  0.50000000  0.00000000
   0.83333300  0.75000000  0.00000000
   0.66666700  0.50000000  0.38944500
   0.83333300  0.75000000  0.38944500
   0.66666700  0.66666600  0.13018000
   0.83333300  0.91666700  0.13018000
   0.66666700  0.83333400  0.25985200
   0.83333300  0.58333400  0.25985200
   0.17080444  0.73453467  0.55033930
   0.00000000  0.00000000  0.09762400
   0.16666700  0.25000000  0.09762400
   0.97515921  0.98960563  0.48649999
   0.16289337  0.25489647  0.48614178
   0.00000000  0.16666600  0.22753200
   0.16666700  0.41666600  0.22753200
   0.00000000  0.33333400  0.35720700
   0.16666700  0.08333300  0.35720700
   0.33333300  0.00000000  0.09762400
   0.50000000  0.25000000  0.09762400
   0.35404117  0.99180191  0.48615426
   0.49145818  0.25158151  0.48688042
   0.33333300  0.16666600  0.22753200
   0.50000000  0.41666600  0.22753200
   0.33333300  0.33333400  0.35720700
   0.50000000  0.08333300  0.35720700
   0.66666700  0.00000000  0.09762400
   0.83333300  0.25000000  0.09762400
   0.66889157  0.98621880  0.48640380
   0.84161216  0.25702411  0.48690581
   0.66666700  0.16666600  0.22753200
   0.83333300  0.41666600  0.22753200
   0.66666700  0.33333400  0.35720700
   0.83333300  0.08333400  0.35720700
   0.00000000  0.50000000  0.09762400
   0.16666700  0.75000000  0.09762400
   0.99133220  0.47527417  0.48631497
   0.16443020  0.82709608  0.48218718
   0.00000000  0.66666600  0.22753200
   0.16666700  0.91666600  0.22753200
   0.00000000  0.83333400  0.35720700
   0.16666700  0.58333400  0.35720700
   0.33333300  0.50000000  0.09762400
   0.50000000  0.75000000  0.09762400
   0.33223467  0.46888314  0.48696733
   0.52337512  0.76566803  0.48683827
   0.33333300  0.66666600  0.22753200
   0.50000000  0.91666700  0.22753200
   0.33333300  0.83333400  0.35720700
   0.50000000  0.58333400  0.35720700
   0.66666700  0.50000000  0.09762400
   0.83333300  0.75000000  0.09762400
   0.67897641  0.50223726  0.48692710
   0.81253045  0.75808728  0.48608758
   0.66666700  0.66666600  0.22753200
   0.83333300  0.91666700  0.22753200
   0.66666700  0.83333400  0.35720700
   0.83333300  0.58333400  0.35720700
   0.36214052  0.64208805  0.63831556
Direct configuration=     4
   0.00000000  0.00000000  0.00000000
   0.16666700  0.25000000  0.00000000
   0.00000000  0.00000000  0.38944500
   0.16666700  0.25000000  0.38944500
   0.00000000  0.16666600  0.13018000
   0.16666700  0.41666600  0.13018000
   0.00000000  0.33333400  0.25985200
   0.16666700  0.08333300  0.25985200
   0.33333300  0.00000000  0.00000000
   0.50000000  0.25000000  0.00000000
   0.33333300  0.00000000  0.38944500
   0.50000000  0.25000000  0.38944500
   0.33333300  0.16666600  0.13018000
   0.50000000  0.41666600  0.13018000
   0.33333300  0.33333400  0.25985200
   0.50000000  0.08333300  0.25985200
   0.66666700  0.00000000  0.00000000
   0.83333300  0.25000000  0.00000000
   0.66666700  0.00000000  0.38944500
   0.83333300  0.25000000  0.38944500
   0.66666700  0.16666600  0.13018000
   0.83333300  0.41666600  0.13018000
   0.66666700  0.33333400  0.25985200
   0.83333300  0.08333400  0.25985200
   0.00000000  0.50000000  0.00000000
   0.16666700  0.75000000  0.00000000
   0.00000000  0.50000000  0.38944500
   0.16666700  0.75000000  0.38944500
   0.00000000  0.66666600  0.13018000
   0.16666700  0.91666600  0.13018000
   0.00000000  0.83333400  0.25985200
   0.16666700  0.58333400  0.25985200
   0.33333300  0.50000000  0.00000000
   0.50000000  0.75000000  0.00000000
   0.33333300  0.50000000  0.38944500
   0.50000000  0.75000000  0.38944500
   0.33333300  0.66666600  0.13018000
   0.50000000  0.91666700  0.13018000
   0.33333300  0.83333400  0.25985200
   0.50000000  0.58333400  0.25985200
   0.66666700  0.50000000  0.00000000
   0.83333300  0.75000000  0.00000000
   0.66666700  0.50000000  0.38944500
   0.83333300  0.75000000  0.38944500
   0.66666700  0.66666600  0.13018000
   0.83333300  0.91666700  0.13018000
   0.66666700  0.83333400  0.25985200
   0.83333300  0.58333400  0.25985200
   0.17074481  0.73455481  0.55033070
   0.00000000  0.00000000  0.09762400
   0.16666700  0.25000000  0.09762400
   0.97517707  0.98953861  0.48649796
   0.16288553  0.25488868  0.48613946
   0.00000000  0.16666600  0.22753200
   0.16666700  0.41666600  0.22753200
   0.00000000  0.33333400  0.35720700
   0.16666700  0.08333300  0.35720700
   0.33333300  0.00000000  0.09762400
   0.50000000  0.25000000  0.09762400
   0.35406466  0.99180237  0.48616434
   0.49144286  0.25158080  0.48687931
   0.33333300  0.16666600  0.22753200
   0.50000000  0.41666600  0.22753200
   0.33333300  0.33333400  0.35720700
   0.50000000  0.08333300  0.35720700
   0.66666700  0.00000000  0.09762400
   0.83333300  0.25000000  0.09762400
   0.66882903  0.98617729  0.48641584
   0.84161059  0.25702396  0.48690735
   0.66666700  0.16666600  0.22753200
   0.83333300  0.41666600  0.22753200
   0.66666700  0.33333400  0.35720700
   0.83333300  0.08333400  0.35720700
   0.00000000  0.50000000  0.09762400
   0.16666700  0.75000000  0.09762400
   0.99133335  0.47526877  0.48630845
   0.16442571  0.82708495  0.48219209
   0.00000000  0.66666600  0.22753200
   0.16666700  0.91666600  0.22753200
   0.00000000  0.83333400  0.35720700
   0.16666700  0.58333400  0.35720700
   0.33333300  0.50000000  0.09762400
   0.50000000  0.75000000  0.09762400
   0.33223407  0.46887639  0.48697594
   0.52335840  0.76566648  0.48681024
   0.33333300  0.66666600  0.22753200
   0.50000000  0.91666700  0.22753200
   0.33333300  0.83333400  0.35720700
   0.50000000  0.58333400  0.35720700
   0.66666700  0.50000000  0.09762400
   0.83333300  0.75000000  0.09762400
   0.67904230  0.50223631  0.48693142
   0.81253280  0.75807855  0.48609591
   0.66666700  0.66666600  0.22753200
   0.83333300  0.91666700  0.22753200
   0.66666700  0.83333400  0.35720700
   0.83333300  0.58333400  0.35720700
   0.36209017  0.64202110  0.63833223
Direct configuration=     5
   0.00000000  0.00000000  0.00000000
   0.16666700  0.25000000  0.00000000
   0.00000000  0.00000000  0.38944500
   0.16666700  0.25000000  0.38944500
   0.00000000  0.16666600  0.13018000
   0.16666700  0.41666600  0.13018000
   0.00000000  0.33333400  0.25985200
   0.16666700  0.08333300  0.25985200
   0.33333300  0.00000000  0.00000000
   0.50000000  0.25000000  0.00000000
   0.33333300  0.00000000  0.38944500
   0.50000000  0.25000000  0.38944500
   0.33333300  0.16666600  0.13018000
   0.50000000  0.41666600  0.13018000
   0.33333300  0.33333400  0.25985200
   0.50000000  0.08333300  0.25985200
   0.66666700  0.00000000  0.00000000
   0.83333300  0.25000000  0.00000000
   0.66666700  0.00000000  0.38944500
   0.83333300  0.25000000  0.38944500
   0.66666700  0.16666600  0.13018000
   0.83333300  0.41666600  0.13018000
   0.66666700  0.33333400  0.25985200
   0.83333300  0.08333400  0.25985200
   0.00000000  0.50000000  0.00000000
   0.16666700  0.75000000  0.00000000
   0.00000000  0.50000000  0.38944500
   0.16666700  0.75000000  0.38944500
   0.00000000  0.66666600  0.13018000
   0.16666700  0.91666600  0.13018000
   0.00000000  0.83333400  0.25985200
   0.16666700  0.58333400  0.25985200
   0.33333300  0.50000000  0.00000000
   0.50000000  0.75000000  0.00000000
   0.33333300  0.50000000  0.38944500
   0.50000000  0.75000000  0.38944500
   0.33333300  0.66666600  0.13018000
   0.50000000  0.91666700  0.13018000
   0.33333300  0.83333400  0.25985200
   0.50000000  0.58333400  0.25985200
   0.66666700  0.50000000  0.00000000
   0.83333300  0.75000000  0.00000000
   0.66666700  0.50000000  0.38944500
   0.83333300  0.75000000  0.38944500
   0.66666700  0.66666600  0.13018000
   0.83333300  0.91666700  0.13018000
   0.66666700  0.83333400  0.25985200
   0.83333300  0.58333400  0.25985200
   0.17062190  0.73458019  0.55032356
   0.00000000  0.00000000  0.09762400
   0.16666700  0.25000000  0.09762400
   0.97519696  0.98940741  0.48649315
   0.16286382  0.25487518  0.48613799
   0.00000000  0.16666600  0.22753200
   0.16666700  0.41666600  0.22753200
   0.00000000  0.33333400  0.35720700
   0.16666700  0.08333300  0.35720700
   0.33333300  0.00000000  0.09762400
   0.50000000  0.25000000  0.09762400
   0.35410978  0.99179686  0.48617257
   0.49140780  0.25157902  0.48687839
   0.33333300  0.16666600  0.22753200
   0.50000000  0.41666600  0.22753200
   0.33333300  0.33333400  0.35720700
   0.50000000  0.08333300  0.35720700
   0.66666700  0.00000000  0.09762400
   0.83333300  0.25000000  0.09762400
   0.66869594  0.98609115  0.48642452
   0.84160739  0.25702597  0.48691014
   0.66666700  0.16666600  0.22753200
   0.83333300  0.41666600  0.22753200
   0.66666700  0.33333400  0.35720700
   0.83333300  0.08333400  0.35720700
   0.00000000  0.50000000  0.09762400
   0.16666700  0.75000000  0.09762400
   0.99133667  0.47525403  0.48629683
   0.16444384  0.82708038  0.48218089
   0.00000000  0.66666600  0.22753200
   0.16666700  0.91666600  0.22753200
   0.00000000  0.83333400  0.35720700
   0.16666700  0.58333400  0.35720700
   0.33333300  0.50000000  0.09762400
   0.50000000  0.75000000  0.09762400
   0.33223117  0.46885974  0.48698526
   0.52331254  0.76565515  0.48677314
   0.33333300  0.66666600  0.22753200
   0.50000000  0.91666700  0.22753200
   0.33333300  0.83333400  0.35720700
   0.50000000  0.58333400  0.35720700
   0.66666700  0.50000000  0.09762400
   0.83333300  0.75000000  0.09762400
   0.67920976  0.50223997  0.48693596
   0.81253064  0.75805729  0.48610254
   0.66666700  0.66666600  0.22753200
   0.83333300  0.91666700  0.22753200
   0.66666700  0.83333400  0.35720700
   0.83333300  0.58333400  0.35720700
   0.36195781  0.64185346  0.63837073
Direct configuration=     6
   0.00000000  0.00000000  0.00000000
   0.16666700  0.25000000  0.00000000
   0.00000000  0.00000000  0.38944500
   0.16666700  0.25000000  0.38944500
   0.00000000  0.16666600  0.13018000
   0.16666700  0.41666600  0.13018000
   0.00000000  0.33333400  0.25985200
   0.16666700  0.08333300  0.25985200
   0.33333300  0.00000000  0.00000000
   0.50000000  0.25000000  0.00000000
   0.33333300  0.00000000  0.38944500
   0.50000000  0.25000000  0.38944500
   0.33333300  0.16666600  0.13018000
   0.50000000  0.41666600  0.13018000
   0.33333300  0.33333400  0.25985200
   0.50000000  0.08333300  0.25985200
   0.66666700  0.00000000  0.00000000
   0.83333300  0.25000000  0.00000000
   0.66666700  0.00000000  0.38944500
   0.83333300  0.25000000  0.38944500
   0.66666700  0.16666600  0.13018000
   0.83333300  0.41666600  0.13018000
   0.66666700  0.33333400  0.25985200
   0.83333300  0.08333400  0.25985200
   0.00000000  0.50000000  0.00000000
   0.16666700  0.75000000  0.00000000
   0.00000000  0.50000000  0.38944500
   0.16666700  0.75000000  0.38944500
   0.00000000  0.66666600  0.13018000
   0.16666700  0.91666600  0.13018000
   0.00000000  0.83333400  0.25985200
   0.16666700  0.58333400  0.25985200
   0.33333300  0.50000000  0.00000000
   0.50000000  0.75000000  0.00000000
   0.33333300  0.50000000  0.38944500
   0.50000000  0.75000000  0.38944500
   0.33333300  0.66666600  0.13018000
   0.50000000  0.91666700  0.13018000
   0.33333300  0.83333400  0.25985200
   0.50000000  0.58333400  0.25985200
   0.66666700  0.50000000  0.00000000
   0.83333300  0.75000000  0.00000000
   0.66666700  0.50000000  0.38944500
   0.83333300  0.75000000  0.38944500
   0.66666700  0.66666600  0.13018000
   0.83333300  0.91666700  0.13018000
   0.66666700  0.83333400  0.25985200
   0.83333300  0.58333400  0.25985200
   0.17061791  0.73457106  0.55032990
   0.00000000  0.00000000  0.09762400
   0.16666700  0.25000000  0.09762400
   0.97519185  0.98941478  0.48649362
   0.16286073  0.25487617  0.48613815
   0.00000000  0.16666600  0.22753200
   0.16666700  0.41666600  0.22753200
   0.00000000  0.33333400  0.35720700
   0.16666700  0.08333300  0.35720700
   0.33333300  0.00000000  0.09762400
   0.50000000  0.25000000  0.09762400
   0.35410868  0.99179615  0.48617118
   0.49140721  0.25157920  0.48687912
   0.33333300  0.16666600  0.22753200
   0.50000000  0.41666600  0.22753200
   0.33333300  0.33333400  0.35720700
   0.50000000  0.08333300  0.35720700
   0.66666700  0.00000000  0.09762400
   0.83333300  0.25000000  0.09762400
   0.66869926  0.98609314  0.48642202
   0.84160844  0.25702746  0.48691016
   0.66666700  0.16666600  0.22753200
   0.83333300  0.41666600  0.22753200
   0.66666700  0.33333400  0.35720700
   0.83333300  0.08333400  0.35720700
   0.00000000  0.50000000  0.09762400
   0.16666700  0.75000000  0.09762400
   0.99133677  0.47525248  0.48629861
   0.16444962  0.82708694  0.48217600
   0.00000000  0.66666600  0.22753200
   0.16666700  0.91666600  0.22753200
   0.00000000  0.83333400  0.35720700
   0.16666700  0.58333400  0.35720700
   0.33333300  0.50000000  0.09762400
   0.50000000  0.75000000  0.09762400
   0.33222923  0.46886098  0.48698318
   0.52331055  0.76565308  0.48678105
   0.33333300  0.66666600  0.22753200
   0.50000000  0.91666700  0.22753200
   0.33333300  0.83333400  0.35720700
   0.50000000  0.58333400  0.35720700
   0.66666700  0.50000000  0.09762400
   0.83333300  0.75000000  0.09762400
   0.67921165  0.50224056  0.48693358
   0.81252835  0.75805685  0.48610045
   0.66666700  0.66666600  0.22753200
   0.83333300  0.91666700  0.22753200
   0.66666700  0.83333400  0.35720700
   0.83333300  0.58333400  0.35720700
   0.36194652  0.64184146  0.63837332
Direct configuration=     7
   0.00000000  0.00000000  0.00000000
   0.16666700  0.25000000  0.00000000
   0.00000000  0.00000000  0.38944500
   0.16666700  0.25000000  0.38944500
   0.00000000  0.16666600  0.13018000
   0.16666700  0.41666600  0.13018000
   0.00000000  0.33333400  0.25985200
   0.16666700  0.08333300  0.25985200
   0.33333300  0.00000000  0.00000000
   0.50000000  0.25000000  0.00000000
   0.33333300  0.00000000  0.38944500
   0.50000000  0.25000000  0.38944500
   0.33333300  0.16666600  0.13018000
   0.50000000  0.41666600  0.13018000
   0.33333300  0.33333400  0.25985200
   0.50000000  0.08333300  0.25985200
   0.66666700  0.00000000  0.00000000
   0.83333300  0.25000000  0.00000000
   0.66666700  0.00000000  0.38944500
   0.83333300  0.25000000  0.38944500
   0.66666700  0.16666600  0.13018000
   0.83333300  0.41666600  0.13018000
   0.66666700  0.33333400  0.25985200
   0.83333300  0.08333400  0.25985200
   0.00000000  0.50000000  0.00000000
   0.16666700  0.75000000  0.00000000
   0.00000000  0.50000000  0.38944500
   0.16666700  0.75000000  0.38944500
   0.00000000  0.66666600  0.13018000
   0.16666700  0.91666600  0.13018000
   0.00000000  0.83333400  0.25985200
   0.16666700  0.58333400  0.25985200
   0.33333300  0.50000000  0.00000000
   0.50000000  0.75000000  0.00000000
   0.33333300  0.50000000  0.38944500
   0.50000000  0.75000000  0.38944500
   0.33333300  0.66666600  0.13018000
   0.50000000  0.91666700  0.13018000
   0.33333300  0.83333400  0.25985200
   0.50000000  0.58333400  0.25985200
   0.66666700  0.50000000  0.00000000
   0.83333300  0.75000000  0.00000000
   0.66666700  0.50000000  0.38944500
   0.83333300  0.75000000  0.38944500
   0.66666700  0.66666600  0.13018000
   0.83333300  0.91666700  0.13018000
   0.66666700  0.83333400  0.25985200
   0.83333300  0.58333400  0.25985200
   0.17058318  0.73459167  0.55031635
   0.00000000  0.00000000  0.09762400
   0.16666700  0.25000000  0.09762400
   0.97519270  0.98936196  0.48649200
   0.16284169  0.25487111  0.48613756
   0.00000000  0.16666600  0.22753200
   0.16666700  0.41666600  0.22753200
   0.00000000  0.33333400  0.35720700
   0.16666700  0.08333300  0.35720700
   0.33333300  0.00000000  0.09762400
   0.50000000  0.25000000  0.09762400
   0.35412971  0.99179362  0.48617033
   0.49138719  0.25157818  0.48687952
   0.33333300  0.16666600  0.22753200
   0.50000000  0.41666600  0.22753200
   0.33333300  0.33333400  0.35720700
   0.50000000  0.08333300  0.35720700
   0.66666700  0.00000000  0.09762400
   0.83333300  0.25000000  0.09762400
   0.66863822  0.98605204  0.48642453
   0.84160975  0.25703489  0.48691272
   0.66666700  0.16666600  0.22753200
   0.83333300  0.41666600  0.22753200
   0.66666700  0.33333400  0.35720700
   0.83333300  0.08333400  0.35720700
   0.00000000  0.50000000  0.09762400
   0.16666700  0.75000000  0.09762400
   0.99133837  0.47524185  0.48629506
   0.16447188  0.82707548  0.48217848
   0.00000000  0.66666600  0.22753200
   0.16666700  0.91666600  0.22753200
   0.00000000  0.83333400  0.35720700
   0.16666700  0.58333400  0.35720700
   0.33333300  0.50000000  0.09762400
   0.50000000  0.75000000  0.09762400
   0.33222344  0.46885494  0.48698629
   0.52328211  0.76564192  0.48677168
   0.33333300  0.66666600  0.22753200
   0.50000000  0.91666700  0.22753200
   0.33333300  0.83333400  0.35720700
   0.50000000  0.58333400  0.35720700
   0.66666700  0.50000000  0.09762400
   0.83333300  0.75000000  0.09762400
   0.67930104  0.50224392  0.48693413
   0.81252050  0.75804539  0.48610310
   0.66666700  0.66666600  0.22753200
   0.83333300  0.91666700  0.22753200
   0.66666700  0.83333400  0.35720700
   0.83333300  0.58333400  0.35720700
   0.36187221  0.64175323  0.63839021
Direct configuration=     8
   0.00000000  0.00000000  0.00000000
   0.16666700  0.25000000  0.00000000
   0.00000000  0.00000000  0.38944500
   0.16666700  0.25000000  0.38944500
   0.00000000  0.16666600  0.13018000
   0.16666700  0.41666600  0.13018000
   0.00000000  0.33333400  0.25985200
   0.16666700  0.08333300  0.25985200
   0.33333300  0.00000000  0.00000000
   0.50000000  0.25000000  0.00000000
   0.33333300  0.00000000  0.38944500
   0.50000000  0.25000000  0.38944500
   0.33333300  0.16666600  0.13018000
   0.50000000  0.41666600  0.13018000
   0.33333300  0.33333400  0.25985200
   0.50000000  0.08333300  0.25985200
   0.66666700  0.00000000  0.00000000
   0.83333300  0.25000000  0.00000000
   0.66666700  0.00000000  0.38944500
   0.83333300  0.25000000  0.38944500
   0.66666700  0.16666600  0.13018000
   0.83333300  0.41666600  0.13018000
   0.66666700  0.33333400  0.25985200
   0.83333300  0.08333400  0.25985200
   0.00000000  0.50000000  0.00000000
   0.16666700  0.75000000  0.00000000
   0.00000000  0.50000000  0.38944500
   0.16666700  0.75000000  0.38944500
   0.00000000  0.66666600  0.13018000
   0.16666700  0.91666600  0.13018000
   0.00000000  0.83333400  0.25985200
   0.16666700  0.58333400  0.25985200
   0.33333300  0.50000000  0.00000000
   0.50000000  0.75000000  0.00000000
   0.33333300  0.50000000  0.38944500
   0.50000000  0.75000000  0.38944500
   0.33333300  0.66666600  0.13018000
   0.50000000  0.91666700  0.13018000
   0.33333300  0.83333400  0.25985200
   0.50000000  0.58333400  0.25985200
   0.66666700  0.50000000  0.00000000
   0.83333300  0.75000000  0.00000000
   0.66666700  0.50000000  0.38944500
   0.83333300  0.75000000  0.38944500
   0.66666700  0.66666600  0.13018000
   0.83333300  0.91666700  0.13018000
   0.66666700  0.83333400  0.25985200
   0.83333300  0.58333400  0.25985200
   0.17050209  0.73458477  0.55031970
   0.00000000  0.00000000  0.09762400
   0.16666700  0.25000000  0.09762400
   0.97517327  0.98924946  0.48649250
   0.16277317  0.25486516  0.48613700
   0.00000000  0.16666600  0.22753200
   0.16666700  0.41666600  0.22753200
   0.00000000  0.33333400  0.35720700
   0.16666700  0.08333300  0.35720700
   0.33333300  0.00000000  0.09762400
   0.50000000  0.25000000  0.09762400
   0.35419143  0.99178409  0.48616575
   0.49132129  0.25157021  0.48688240
   0.33333300  0.16666600  0.22753200
   0.50000000  0.41666600  0.22753200
   0.33333300  0.33333400  0.35720700
   0.50000000  0.08333300  0.35720700
   0.66666700  0.00000000  0.09762400
   0.83333300  0.25000000  0.09762400
   0.66847668  0.98594147  0.48642432
   0.84161845  0.25706800  0.48691915
   0.66666700  0.16666600  0.22753200
   0.83333300  0.41666600  0.22753200
   0.66666700  0.33333400  0.35720700
   0.83333300  0.08333400  0.35720700
   0.00000000  0.50000000  0.09762400
   0.16666700  0.75000000  0.09762400
   0.99134554  0.47520694  0.48629185
   0.16456089  0.82707918  0.48216235
   0.00000000  0.66666600  0.22753200
   0.16666700  0.91666600  0.22753200
   0.00000000  0.83333400  0.35720700
   0.16666700  0.58333400  0.35720700
   0.33333300  0.50000000  0.09762400
   0.50000000  0.75000000  0.09762400
   0.33219390  0.46884455  0.48698563
   0.52318093  0.76559831  0.48678593
   0.33333300  0.66666600  0.22753200
   0.50000000  0.91666700  0.22753200
   0.33333300  0.83333400  0.35720700
   0.50000000  0.58333400  0.35720700
   0.66666700  0.50000000  0.09762400
   0.83333300  0.75000000  0.09762400