  66  66   0   0
  0.2615393E+02  0.9614902E-09  0.8326749E-09  0.2156059E-08  0.5000000E-15
  1.000000000000000E-004
  CAR 
 ni3al                                   
      8.42282679    -32.64229367  301      0.85547688      1.00000000
    -32.642  0.0000E+00  0.0000E+00
    -32.505  0.0000E+00  0.0000E+00
    -32.369  0.0000E+00  0.0000E+00
    -32.232  0.0000E+00  0.0000E+00
    -32.095  0.0000E+00  0.0000E+00
    -31.958  0.0000E+00  0.0000E+00
    -31.821  0.0000E+00  0.0000E+00
    -31.684  0.0000E+00  0.0000E+00
    -31.547  0.0000E+00  0.0000E+00
    -31.410  0.0000E+00  0.0000E+00
    -31.273  0.4702E-13  0.6437E-14
    -31.137  0.8117E-08  0.1111E-08
    -31.000  0.3741E-04  0.5121E-05
    -30.863  0.5271E-02  0.7266E-03
    -30.726  0.3167E-01  0.5062E-02
    -30.589  0.1152E-01  0.6639E-02
    -30.452  0.2019E-03  0.6667E-02
    -30.315  0.1156E-06  0.6667E-02
    -30.178  0.1813E-11  0.6667E-02
    -30.042  0.0000E+00  0.6667E-02
    -29.905  0.0000E+00  0.6667E-02
    -29.768  0.0000E+00  0.6667E-02
    -29.631  0.0000E+00  0.6667E-02
    -29.494  0.0000E+00  0.6667E-02
    -29.357  0.0000E+00  0.6667E-02
    -29.220  0.0000E+00  0.6667E-02
    -29.083  0.0000E+00  0.6667E-02
    -28.946  0.0000E+00  0.6667E-02
    -28.810  0.0000E+00  0.6667E-02
    -28.673  0.0000E+00  0.6667E-02
    -28.536  0.0000E+00  0.6667E-02
    -28.399  0.0000E+00  0.6667E-02
    -28.262  0.0000E+00  0.6667E-02
    -28.125  0.0000E+00  0.6667E-02
    -27.988  0.0000E+00  0.6667E-02
    -27.851  0.0000E+00  0.6667E-02
    -27.714  0.0000E+00  0.6667E-02
    -27.578  0.0000E+00  0.6667E-02
    -27.441  0.0000E+00  0.6667E-02
    -27.304  0.0000E+00  0.6667E-02
    -27.167  0.0000E+00  0.6667E-02
    -27.030  0.0000E+00  0.6667E-02
    -26.893  0.0000E+00  0.6667E-02
    -26.756  0.0000E+00  0.6667E-02
    -26.619  0.0000E+00  0.6667E-02
    -26.483  0.0000E+00  0.6667E-02
    -26.346  0.0000E+00  0.6667E-02
    -26.209  0.0000E+00  0.6667E-02
    -26.072  0.0000E+00  0.6667E-02
    -25.935  0.0000E+00  0.6667E-02
    -25.798  0.0000E+00  0.6667E-02
    -25.661  0.0000E+00  0.6667E-02
    -25.524  0.0000E+00  0.6667E-02
    -25.387  0.0000E+00  0.6667E-02
    -25.251  0.0000E+00  0.6667E-02
    -25.114  0.0000E+00  0.6667E-02
    -24.977  0.0000E+00  0.6667E-02
    -24.840  0.0000E+00  0.6667E-02
    -24.703  0.0000E+00  0.6667E-02
    -24.566  0.0000E+00  0.6667E-02
    -24.429  0.0000E+00  0.6667E-02
    -24.292  0.0000E+00  0.6667E-02
    -24.156  0.0000E+00  0.6667E-02
    -24.019  0.0000E+00  0.6667E-02
    -23.882  0.1217E-15  0.6667E-02
    -23.745  0.9366E-10  0.6667E-02
    -23.608  0.1865E-05  0.6667E-02
    -23.471  0.1057E-02  0.6812E-02
    -23.334  0.2168E-01  0.9779E-02
    -23.197  0.2441E-01  0.1312E-01
    -23.060  0.1553E-02  0.1333E-01
    -22.924  0.3691E-05  0.1333E-01
    -22.787  0.2529E-09  0.1333E-01
    -22.650  0.4542E-15  0.1333E-01
    -22.513  0.0000E+00  0.1333E-01
    -22.376  0.0000E+00  0.1333E-01
    -22.239  0.6060E-16  0.1333E-01
    -22.102  0.3048E-10  0.1333E-01
    -21.965  0.4144E-06  0.1333E-01
    -21.828  0.1953E-03  0.1336E-01
    -21.692  0.5910E-02  0.1417E-01
    -21.555  0.2176E-01  0.1715E-01
    -21.418  0.1983E-01  0.1986E-01
    -21.281  0.2581E-01  0.2339E-01
    -21.144  0.2507E-01  0.2683E-01
    -21.007  0.3113E-01  0.3109E-01
    -20.870  0.3619E-01  0.3604E-01
    -20.733  0.3393E-01  0.4068E-01
    -20.597  0.5732E-01  0.4853E-01
    -20.460  0.7904E-01  0.5935E-01
    -20.323  0.4991E-01  0.6618E-01
    -20.186  0.1702E-01  0.6851E-01
    -20.049  0.6307E-01  0.7715E-01
    -19.912  0.9438E-01  0.9006E-01
    -19.775  0.1291E+00  0.1077E+00
    -19.638  0.1624E+00  0.1300E+00
    -19.501  0.1536E+00  0.1510E+00
    -19.365  0.1332E+00  0.1692E+00
    -19.228  0.1107E+00  0.1844E+00
    -19.091  0.8009E-01  0.1953E+00
    -18.954  0.6929E-01  0.2048E+00
    -18.817  0.5375E-01  0.2122E+00
    -18.680  0.5602E-01  0.2199E+00
    -18.543  0.6031E-01  0.2281E+00
    -18.406  0.3579E-01  0.2330E+00
    -18.270  0.6281E-02  0.2339E+00
    -18.133  0.3029E-01  0.2380E+00
    -17.996  0.1450E-01  0.2400E+00
    -17.859  0.1440E-01  0.2420E+00
    -17.722  0.4298E-01  0.2479E+00
    -17.585  0.3528E-01  0.2527E+00
    -17.448  0.4724E-02  0.2533E+00
    -17.311  0.2998E-04  0.2533E+00
    -17.174  0.5856E-08  0.2533E+00
    -17.038  0.3072E-13  0.2533E+00
    -16.901  0.0000E+00  0.2533E+00
    -16.764  0.0000E+00  0.2533E+00
    -16.627  0.0000E+00  0.2533E+00
    -16.490  0.0000E+00  0.2533E+00
    -16.353  0.0000E+00  0.2533E+00
    -16.216  0.0000E+00  0.2533E+00
    -16.079  0.0000E+00  0.2533E+00
    -15.942  0.0000E+00  0.2533E+00
    -15.806  0.0000E+00  0.2533E+00
    -15.669  0.0000E+00  0.2533E+00
    -15.532  0.0000E+00  0.2533E+00
    -15.395  0.0000E+00  0.2533E+00
    -15.258  0.0000E+00  0.2533E+00
    -15.121  0.0000E+00  0.2533E+00
    -14.984  0.0000E+00  0.2533E+00
    -14.847  0.9036E-13  0.2533E+00
    -14.711  0.1312E-07  0.2533E+00
    -14.574  0.5114E-04  0.2533E+00
    -14.437  0.6324E-02  0.2542E+00
    -14.300  0.4637E-01  0.2606E+00
    -14.163  0.7214E-01  0.2704E+00
    -14.026  0.2080E-01  0.2733E+00
    -13.889  0.4164E-03  0.2733E+00
    -13.752  0.3235E-06  0.2733E+00
    -13.615  0.7372E-11  0.2733E+00
    -13.479  0.5407E-17  0.2733E+00
    -13.342  0.0000E+00  0.2733E+00
    -13.205  0.0000E+00  0.2733E+00
    -13.068  0.0000E+00  0.2733E+00
    -12.931  0.0000E+00  0.2733E+00
    -12.794  0.0000E+00  0.2733E+00
    -12.657  0.0000E+00  0.2733E+00
    -12.520  0.0000E+00  0.2733E+00
    -12.384  0.0000E+00  0.2733E+00
    -12.247  0.0000E+00  0.2733E+00
    -12.110  0.0000E+00  0.2733E+00
    -11.973  0.0000E+00  0.2733E+00
    -11.836  0.0000E+00  0.2733E+00
    -11.699  0.0000E+00  0.2733E+00
    -11.562  0.0000E+00  0.2733E+00
    -11.425  0.0000E+00  0.2733E+00
    -11.288  0.0000E+00  0.2733E+00
    -11.152  0.0000E+00  0.2733E+00
    -11.015  0.0000E+00  0.2733E+00
    -10.878  0.0000E+00  0.2733E+00
    -10.741  0.0000E+00  0.2733E+00
    -10.604  0.0000E+00  0.2733E+00
    -10.467  0.0000E+00  0.2733E+00
    -10.330  0.0000E+00  0.2733E+00
    -10.193  0.0000E+00  0.2733E+00
    -10.056  0.0000E+00  0.2733E+00
     -9.920  0.0000E+00  0.2733E+00
     -9.783  0.0000E+00  0.2733E+00
     -9.646  0.1406E-14  0.2733E+00
     -9.509  0.3948E-09  0.2733E+00
     -9.372  0.3207E-05  0.2733E+00
     -9.235  0.9607E-03  0.2735E+00
     -9.098  0.2012E-01  0.2762E+00
     -8.961  0.6749E-01  0.2855E+00
     -8.825  0.8370E-01  0.2969E+00
     -8.688  0.8519E-01  0.3086E+00
     -8.551  0.8325E-01  0.3200E+00
     -8.414  0.8696E-01  0.3319E+00
     -8.277  0.9001E-01  0.3442E+00
     -8.140  0.8518E-01  0.3559E+00
     -8.003  0.7766E-01  0.3665E+00
     -7.866  0.6971E-01  0.3760E+00
     -7.729  0.6277E-01  0.3846E+00
     -7.593  0.7912E-01  0.3955E+00
     -7.456  0.6709E-01  0.4046E+00
     -7.319  0.5236E-01  0.4118E+00
     -7.182  0.1072E+00  0.4265E+00
     -7.045  0.9852E-01  0.4400E+00
     -6.908  0.8465E-01  0.4516E+00
     -6.771  0.7799E-01  0.4622E+00
     -6.634  0.9561E-01  0.4753E+00
     -6.498  0.1133E+00  0.4908E+00
     -6.361  0.1006E+00  0.5046E+00
     -6.224  0.9025E-01  0.5170E+00
     -6.087  0.8232E-01  0.5282E+00
     -5.950  0.7505E-01  0.5385E+00
     -5.813  0.8789E-01  0.5505E+00
     -5.676  0.1217E+00  0.5672E+00
     -5.539  0.1080E+00  0.5820E+00
     -5.402  0.1045E+00  0.5963E+00
     -5.266  0.1004E+00  0.6100E+00
     -5.129  0.1474E+00  0.6302E+00
     -4.992  0.1527E+00  0.6511E+00
     -4.855  0.1423E+00  0.6706E+00
     -4.718  0.1380E+00  0.6895E+00
     -4.581  0.1450E+00  0.7093E+00
     -4.444  0.1874E+00  0.7350E+00
     -4.307  0.1952E+00  0.7617E+00
     -4.170  0.1841E+00  0.7869E+00
     -4.034  0.1659E+00  0.8096E+00
     -3.897  0.1659E+00  0.8323E+00
     -3.760  0.1605E+00  0.8543E+00
     -3.623  0.1688E+00  0.8774E+00
     -3.486  0.1493E+00  0.8978E+00
     -3.349  0.1213E+00  0.9144E+00
     -3.212  0.1132E+00  0.9299E+00
     -3.075  0.8975E-01  0.9422E+00
     -2.939  0.7769E-01  0.9528E+00
     -2.802  0.9910E-01  0.9664E+00
     -2.665  0.6319E-01  0.9751E+00
     -2.528  0.4567E-01  0.9813E+00
     -2.391  0.5675E-01  0.9891E+00
     -2.254  0.5380E-01  0.9964E+00
     -2.117  0.2379E-01  0.9997E+00
     -1.980  0.1244E-01  0.1001E+01
     -1.843  0.3157E-01  0.1006E+01
     -1.707  0.3142E-01  0.1010E+01
     -1.570  0.2229E-01  0.1013E+01
     -1.433  0.3411E-02  0.1014E+01
     -1.296  0.9202E-02  0.1015E+01
     -1.159  0.1857E-01  0.1017E+01
     -1.022  0.1552E-01  0.1019E+01
     -0.885  0.2616E-01  0.1023E+01
     -0.748  0.1843E-01  0.1026E+01
     -0.611  0.2532E-01  0.1029E+01
     -0.475  0.3006E-01  0.1033E+01
     -0.338  0.3282E-01  0.1038E+01
     -0.201  0.9850E-02  0.1039E+01
     -0.064  0.5580E-02  0.1040E+01
      0.073  0.3389E-02  0.1040E+01
      0.210  0.5534E-02  0.1041E+01
      0.347  0.6816E-02  0.1042E+01
      0.484  0.2730E-01  0.1046E+01
      0.620  0.2343E-01  0.1049E+01
      0.757  0.1532E-01  0.1051E+01
      0.894  0.2305E-01  0.1054E+01
      1.031  0.6477E-02  0.1055E+01
      1.168  0.3421E-02  0.1055E+01
      1.305  0.1184E-01  0.1057E+01
      1.442  0.1554E-01  0.1059E+01
      1.579  0.1047E-01  0.1061E+01
      1.716  0.6559E-02  0.1062E+01
      1.852  0.8924E-02  0.1063E+01
      1.989  0.1926E-01  0.1065E+01
      2.126  0.2450E-01  0.1069E+01
      2.263  0.1666E-01  0.1071E+01
      2.400  0.1438E-01  0.1073E+01
      2.537  0.4443E-01  0.1079E+01
      2.674  0.5113E-01  0.1086E+01
      2.811  0.4024E-01  0.1092E+01
      2.947  0.4816E-01  0.1098E+01
      3.084  0.4072E-01  0.1104E+01
      3.221  0.2133E-01  0.1107E+01
      3.358  0.1059E-01  0.1108E+01
      3.495  0.1489E-01  0.1110E+01
      3.632  0.2860E-01  0.1114E+01
      3.769  0.3449E-01  0.1119E+01
      3.906  0.1377E-01  0.1121E+01
      4.043  0.1185E-01  0.1122E+01
      4.179  0.1749E-01  0.1125E+01
      4.316  0.1682E-01  0.1127E+01
      4.453  0.3561E-01  0.1132E+01
      4.590  0.5052E-01  0.1139E+01
      4.727  0.6856E-01  0.1148E+01
      4.864  0.5378E-01  0.1156E+01
      5.001  0.5587E-01  0.1163E+01
      5.138  0.6839E-01  0.1173E+01
      5.275  0.6696E-01  0.1182E+01
      5.411  0.7136E-01  0.1191E+01
      5.548  0.7660E-01  0.1202E+01
      5.685  0.8810E-01  0.1214E+01
      5.822  0.8490E-01  0.1226E+01
      5.959  0.7126E-01  0.1235E+01
      6.096  0.7771E-01  0.1246E+01
      6.233  0.9982E-01  0.1260E+01
      6.370  0.8018E-01  0.1271E+01
      6.506  0.5131E-01  0.1278E+01
      6.643  0.1601E-01  0.1280E+01
      6.780  0.8204E-03  0.1280E+01
      6.917  0.3677E-05  0.1280E+01
      7.054  0.7046E-09  0.1280E+01
      7.191  0.3958E-14  0.1280E+01
      7.328  0.0000E+00  0.1280E+01
      7.465  0.0000E+00  0.1280E+01
      7.602  0.0000E+00  0.1280E+01
      7.738  0.0000E+00  0.1280E+01
      7.875  0.0000E+00  0.1280E+01
      8.012  0.0000E+00  0.1280E+01
      8.149  0.0000E+00  0.1280E+01
      8.286  0.0000E+00  0.1280E+01
      8.423  0.0000E+00  0.1280E+01
