       N       E                     dE             d eps       ncg     rms          rms(c)
DAV:   1     0.302845502025E+04    0.30285E+04   -0.13979E+05  2776   0.139E+03
DAV:   2     0.650760650177E+01   -0.30219E+04   -0.29169E+04  3640   0.342E+02
DAV:   3    -0.497583513614E+03   -0.50409E+03   -0.50168E+03  3200   0.145E+02
DAV:   4    -0.512641493029E+03   -0.15058E+02   -0.15013E+02  3240   0.284E+01
DAV:   5    -0.513073497541E+03   -0.43200E+00   -0.43158E+00  3432   0.428E+00    0.458E+01
RMM:   6    -0.452429122571E+03    0.60644E+02   -0.25514E+02  2735   0.324E+01    0.141E+01
RMM:   7    -0.452682309416E+03   -0.25319E+00   -0.23860E+01  2765   0.883E+00    0.938E+00
RMM:   8    -0.451576891606E+03    0.11054E+01   -0.37097E+00  2744   0.461E+00    0.160E+00
RMM:   9    -0.451426142221E+03    0.15075E+00   -0.12827E+00  3025   0.188E+00    0.112E+00
RMM:  10    -0.451189396652E+03    0.23675E+00   -0.53979E-01  2825   0.137E+00    0.104E+00
RMM:  11    -0.451093933736E+03    0.95463E-01   -0.12187E-01  3216   0.610E-01    0.612E-01
RMM:  12    -0.450870850889E+03    0.22308E+00   -0.28051E-01  2951   0.943E-01    0.657E-01
RMM:  13    -0.450836337337E+03    0.34514E-01   -0.47810E-02  3074   0.410E-01    0.388E-01
RMM:  14    -0.450644612141E+03    0.19173E+00   -0.27792E-01  3690   0.807E-01    0.855E-01
RMM:  15    -0.450608234896E+03    0.36377E-01   -0.47065E-02  2980   0.411E-01    0.431E-01
RMM:  16    -0.450614841044E+03   -0.66061E-02   -0.19076E-01  3665   0.804E-01    0.756E-01
RMM:  17    -0.450616376429E+03   -0.15354E-02   -0.38130E-02  2827   0.402E-01    0.315E-01
RMM:  18    -0.450634107158E+03   -0.17731E-01   -0.61086E-02  2924   0.469E-01    0.294E-01
RMM:  19    -0.450642928122E+03   -0.88210E-02   -0.14323E-02  2781   0.249E-01    0.465E-02
RMM:  20    -0.450648259760E+03   -0.53316E-02   -0.41657E-03  2986   0.109E-01    0.651E-02
RMM:  21    -0.450651021431E+03   -0.27617E-02   -0.18861E-03  2858   0.781E-02    0.469E-02
RMM:  22    -0.450651546582E+03   -0.52515E-03   -0.87966E-04  2545   0.430E-02    0.155E-02
RMM:  23    -0.450651725626E+03   -0.17904E-03   -0.67092E-04  2497   0.430E-02    0.423E-02
RMM:  24    -0.450651881557E+03   -0.15593E-03   -0.61065E-04  2446   0.443E-02    0.173E-02
RMM:  25    -0.450652164560E+03   -0.28300E-03   -0.14717E-04  1678   0.193E-02    0.187E-02
RMM:  26    -0.450652388210E+03   -0.22365E-03   -0.10629E-04  1625   0.159E-02    0.576E-03
RMM:  27    -0.450652520493E+03   -0.13228E-03   -0.61270E-05  1376   0.109E-02    0.279E-03
RMM:  28    -0.450652590085E+03   -0.69592E-04   -0.30876E-05  1031   0.750E-03
   1 F= -.45065259E+03 E0= -.45063518E+03  d E =-.450653E+03
       N       E                     dE             d eps       ncg     rms          rms(c)
DAV:   1    -0.450077693921E+03    0.57483E+00   -0.26317E+02  2976   0.330E+01    0.410E+00
RMM:   2    -0.451282009503E+03   -0.12043E+01   -0.14615E+01  2689   0.481E+00    0.200E+00
RMM:   3    -0.451345505906E+03   -0.63496E-01   -0.13488E+00  2748   0.148E+00    0.186E+00
RMM:   4    -0.451298110009E+03    0.47396E-01   -0.17312E-01  2725   0.757E-01    0.912E-01
RMM:   5    -0.451290453628E+03    0.76564E-02   -0.14839E-01  2722   0.620E-01    0.424E-01
RMM:   6    -0.451285893249E+03    0.45604E-02   -0.20972E-02  2545   0.256E-01    0.198E-01
RMM:   7    -0.451286726851E+03   -0.83360E-03   -0.15012E-02  2416   0.203E-01    0.232E-01
RMM:   8    -0.451286030944E+03    0.69591E-03   -0.29340E-03  2313   0.887E-02    0.122E-01
RMM:   9    -0.451286138479E+03   -0.10754E-03   -0.47123E-03  2494   0.106E-01    0.823E-02
RMM:  10    -0.451286084102E+03    0.54377E-04   -0.12923E-03  2045   0.583E-02    0.251E-02
RMM:  11    -0.451286268650E+03   -0.18455E-03   -0.49672E-04  2126   0.320E-02    0.250E-02
RMM:  12    -0.451286322724E+03   -0.54074E-04   -0.39846E-04  1817   0.265E-02
   2 F= -.45128632E+03 E0= -.45126923E+03  d E =-.633733E+00
       N       E                     dE             d eps       ncg     rms          rms(c)
DAV:   1    -0.450474304689E+03    0.81196E+00   -0.21661E+02  2944   0.295E+01    0.365E+00
RMM:   2    -0.451401590274E+03   -0.92729E+00   -0.11297E+01  2688   0.419E+00    0.186E+00
RMM:   3    -0.451444034844E+03   -0.42445E-01   -0.99805E-01  2747   0.130E+00    0.161E+00
RMM:   4    -0.451407916929E+03    0.36118E-01   -0.12889E-01  2673   0.628E-01    0.873E-01
RMM:   5    -0.451401318873E+03    0.65981E-02   -0.14458E-01  2751   0.586E-01    0.478E-01
RMM:   6    -0.451396688436E+03    0.46304E-02   -0.25515E-02  2443   0.269E-01    0.182E-01
RMM:   7    -0.451397183847E+03   -0.49541E-03   -0.10727E-02  2424   0.165E-01    0.228E-01
RMM:   8    -0.451396139237E+03    0.10446E-02   -0.53179E-03  2294   0.117E-01    0.578E-02
RMM:   9    -0.451396189059E+03   -0.49822E-04   -0.18314E-03  2318   0.615E-02    0.624E-02
RMM:  10    -0.451396203705E+03   -0.14646E-04   -0.21399E-03  2289   0.709E-02    0.816E-02
RMM:  11    -0.451396037438E+03    0.16627E-03   -0.92786E-04  2227   0.457E-02    0.261E-02
RMM:  12    -0.451395979624E+03    0.57814E-04   -0.86720E-04  2215   0.380E-02
   3 F= -.45139598E+03 E0= -.45137890E+03  d E =-.743390E+00
       N       E                     dE             d eps       ncg     rms          rms(c)
DAV:   1    -0.451555486914E+03   -0.15945E+00   -0.64525E+01  2800   0.164E+01    0.175E+00
RMM:   2    -0.451735188626E+03   -0.17970E+00   -0.23525E+00  2704   0.238E+00    0.120E+00
RMM:   3    -0.451742985506E+03   -0.77969E-02   -0.20685E-01  2844   0.756E-01    0.812E-01
RMM:   4    -0.451737108369E+03    0.58771E-02   -0.31234E-02  2629   0.322E-01    0.613E-01
RMM:   5    -0.451737368676E+03   -0.26031E-03   -0.65602E-02  2805   0.438E-01    0.401E-01
RMM:   6    -0.451734887815E+03    0.24809E-02   -0.95441E-03  2355   0.167E-01    0.149E-01
RMM:   7    -0.451735433587E+03   -0.54577E-03   -0.98150E-03  2415   0.145E-01    0.160E-01
RMM:   8    -0.451735042408E+03    0.39118E-03   -0.24222E-03  2179   0.834E-02    0.460E-02
RMM:   9    -0.451735083448E+03   -0.41040E-04   -0.44323E-04  1915   0.363E-02
   4 F= -.45173508E+03 E0= -.45171801E+03  d E =-.339104E+00
       N       E                     dE             d eps       ncg     rms          rms(c)
DAV:   1    -0.451727529291E+03    0.75131E-02   -0.25862E+01  2840   0.104E+01    0.104E+00
RMM:   2    -0.451789309370E+03   -0.61780E-01   -0.79961E-01  2704   0.147E+00    0.739E-01
RMM:   3    -0.451791085684E+03   -0.17763E-02   -0.68102E-02  2801   0.461E-01    0.457E-01
RMM:   4    -0.451789321837E+03    0.17638E-02   -0.11171E-02  2493   0.195E-01    0.353E-01
RMM:   5    -0.451789615875E+03   -0.29404E-03   -0.17195E-02  2576   0.226E-01    0.223E-01
RMM:   6    -0.451788944516E+03    0.67136E-03   -0.34602E-03  2320   0.936E-02    0.839E-02
RMM:   7    -0.451789152644E+03   -0.20813E-03   -0.22390E-03  2288   0.699E-02    0.868E-02
RMM:   8    -0.451789058447E+03    0.94197E-04   -0.73187E-04  1862   0.435E-02
   5 F= -.45178906E+03 E0= -.45177198E+03  d E =-.393079E+00
       N       E                     dE             d eps       ncg     rms          rms(c)
DAV:   1    -0.451830192310E+03   -0.41040E-01   -0.13348E+01  2800   0.681E+00    0.570E-01
RMM:   2    -0.451859267108E+03   -0.29075E-01   -0.30822E-01  2671   0.942E-01    0.451E-01
RMM:   3    -0.451858792122E+03    0.47499E-03   -0.19350E-02  2527   0.275E-01    0.247E-01
RMM:   4    -0.451857930913E+03    0.86121E-03   -0.46335E-03  2612   0.118E-01    0.155E-01
RMM:   5    -0.451857483398E+03    0.44752E-03   -0.14358E-03  2474   0.569E-02    0.740E-02
RMM:   6    -0.451857283433E+03    0.19997E-03   -0.51385E-04  1960   0.302E-02    0.325E-02
RMM:   7    -0.451857202621E+03    0.80812E-04   -0.20708E-04  1493   0.181E-02
   6 F= -.45185720E+03 E0= -.45184013E+03  d E =-.681442E-01
       N       E                     dE             d eps       ncg     rms          rms(c)
DAV:   1    -0.451848402756E+03    0.88807E-02   -0.11407E+01  2832   0.631E+00    0.555E-01
RMM:   2    -0.451873719812E+03   -0.25317E-01   -0.27038E-01  2662   0.881E-01    0.387E-01
RMM:   3    -0.451872961910E+03    0.75790E-03   -0.16955E-02  2520   0.257E-01    0.210E-01
RMM:   4    -0.451872157178E+03    0.80473E-03   -0.44597E-03  2668   0.113E-01    0.121E-01
RMM:   5    -0.451871815293E+03    0.34189E-03   -0.10448E-03  2382   0.471E-02    0.666E-02
RMM:   6    -0.451871560890E+03    0.25440E-03   -0.45902E-04  1936   0.292E-02    0.234E-02
RMM:   7    -0.451871466568E+03    0.94321E-04   -0.22220E-04  1491   0.185E-02
   7 F= -.45187147E+03 E0= -.45185439E+03  d E =-.824081E-01
       N       E                     dE             d eps       ncg     rms          rms(c)
DAV:   1    -0.451871605913E+03   -0.45023E-04   -0.49228E-01  2904   0.131E+00    0.131E-01
RMM:   2    -0.451872706674E+03   -0.11008E-02   -0.11319E-02  2307   0.184E-01    0.802E-02
RMM:   3    -0.451872738500E+03   -0.31827E-04   -0.69727E-04  1786   0.536E-02
   8 F= -.45187274E+03 E0= -.45185566E+03  d E =-.836801E-01
       N       E                     dE             d eps       ncg     rms          rms(c)
DAV:   1    -0.451880543630E+03   -0.78370E-02   -0.29511E+00  2800   0.320E+00    0.258E-01
RMM:   2    -0.451886615409E+03   -0.60718E-02   -0.64769E-02  2616   0.457E-01    0.179E-01
RMM:   3    -0.451886643705E+03   -0.28296E-04   -0.42368E-03  2335   0.134E-01    0.996E-02
RMM:   4    -0.451886647293E+03   -0.35886E-05   -0.11471E-03  2389   0.595E-02    0.613E-02
RMM:   5    -0.451886703049E+03   -0.55755E-04   -0.36021E-04  1843   0.299E-02
   9 F= -.45188670E+03 E0= -.45186962E+03  d E =-.139645E-01
       N       E                     dE             d eps       ncg     rms          rms(c)
DAV:   1    -0.451885680627E+03    0.96667E-03   -0.23844E+00  2768   0.289E+00    0.229E-01
RMM:   2    -0.451890528885E+03   -0.48483E-02   -0.51967E-02  2607   0.411E-01    0.168E-01
RMM:   3    -0.451890573885E+03   -0.45000E-04   -0.36665E-03  2407   0.122E-01    0.976E-02
RMM:   4    -0.451890575770E+03   -0.18850E-05   -0.10315E-03  2392   0.547E-02    0.600E-02
RMM:   5    -0.451890623688E+03   -0.47918E-04   -0.36726E-04  1843   0.284E-02
  10 F= -.45189062E+03 E0= -.45187355E+03  d E =-.178852E-01
       N       E                     dE             d eps       ncg     rms          rms(c)
DAV:   1    -0.451895264789E+03   -0.46890E-02   -0.27380E+00  2792   0.298E+00    0.235E-01
RMM:   2    -0.451900750346E+03   -0.54856E-02   -0.59542E-02  2547   0.396E-01    0.123E-01
RMM:   3    -0.451900900608E+03   -0.15026E-03   -0.43254E-03  2310   0.117E-01    0.872E-02
RMM:   4    -0.451900918612E+03   -0.18004E-04   -0.10943E-03  2287   0.492E-02    0.477E-02
RMM:   5    -0.451900961404E+03   -0.42792E-04   -0.42231E-04  1778   0.284E-02
  11 F= -.45190096E+03 E0= -.45188388E+03  d E =-.103377E-01
       N       E                     dE             d eps       ncg     rms          rms(c)
DAV:   1    -0.451893992272E+03    0.69263E-02   -0.51181E+00  2800   0.409E+00    0.318E-01
RMM:   2    -0.451904357361E+03   -0.10365E-01   -0.11349E-01  2625   0.546E-01    0.158E-01
RMM:   3    -0.451904596677E+03   -0.23932E-03   -0.81950E-03  2403   0.161E-01    0.116E-01
RMM:   4    -0.451904579045E+03    0.17632E-04   -0.19809E-03  2580   0.661E-02    0.698E-02
RMM:   5    -0.451904596907E+03   -0.17863E-04   -0.81282E-04  2120   0.404E-02
  12 F= -.45190460E+03 E0= -.45188752E+03  d E =-.139732E-01
       N       E                     dE             d eps       ncg     rms          rms(c)
DAV:   1    -0.451903558643E+03    0.10204E-02   -0.36885E+00  2736   0.320E+00    0.328E-01
RMM:   2    -0.451912742863E+03   -0.91842E-02   -0.10046E-01  2546   0.455E-01    0.146E-01
RMM:   3    -0.451913365954E+03   -0.62309E-03   -0.78206E-03  2373   0.136E-01    0.976E-02
RMM:   4    -0.451913521247E+03   -0.15529E-03   -0.16822E-03  2232   0.530E-02    0.747E-02
RMM:   5    -0.451913690156E+03   -0.16891E-03   -0.99094E-04  1947   0.368E-02    0.242E-02
RMM:   6    -0.451913789699E+03   -0.99542E-04   -0.40014E-04  1405   0.196E-02
  13 F= -.45191379E+03 E0= -.45189671E+03  d E =-.919279E-02
       N       E                     dE             d eps       ncg     rms          rms(c)
DAV:   1    -0.451823998582E+03    0.89692E-01   -0.33480E+01  2688   0.967E+00    0.101E+00
RMM:   2    -0.451914404929E+03   -0.90406E-01   -0.98789E-01  2722   0.140E+00    0.645E-01
RMM:   3    -0.451919823669E+03   -0.54187E-02   -0.76397E-02  2696   0.424E-01    0.338E-01
RMM:   4    -0.451920150736E+03   -0.32707E-03   -0.13732E-02  3034   0.161E-01    0.253E-01
RMM:   5    -0.451920188975E+03   -0.38239E-04   -0.74298E-03  2766   0.105E-01    0.778E-02
RMM:   6    -0.451920622958E+03   -0.43398E-03   -0.30169E-03  2421   0.536E-02    0.450E-02
RMM:   7    -0.451920819561E+03   -0.19660E-03   -0.19356E-03  2086   0.384E-02    0.300E-02
RMM:   8    -0.451920962997E+03   -0.14344E-03   -0.10231E-03  1586   0.248E-02    0.229E-02
RMM:   9    -0.451921072752E+03   -0.10976E-03   -0.65160E-04  1700   0.223E-02    0.152E-02
RMM:  10    -0.451921146369E+03   -0.73617E-04   -0.39365E-04  1270   0.156E-02
  14 F= -.45192115E+03 E0= -.45190407E+03  d E =-.165495E-01
       N       E                     dE             d eps       ncg     rms          rms(c)
DAV:   1    -0.451923264797E+03   -0.21920E-02   -0.91092E-01  2800   0.143E+00    0.181E-01
RMM:   2    -0.451925908517E+03   -0.26437E-02   -0.29643E-02  2319   0.211E-01    0.888E-02
RMM:   3    -0.451926147922E+03   -0.23941E-03   -0.25308E-03  1863   0.655E-02    0.514E-02
RMM:   4    -0.451926197718E+03   -0.49796E-04   -0.54086E-04  1492   0.275E-02
  15 F= -.45192620E+03 E0= -.45190912E+03  d E =-.505135E-02
       N       E                     dE             d eps       ncg     rms          rms(c)
DAV:   1    -0.451911724489E+03    0.14423E-01   -0.82615E+00  2688   0.430E+00    0.527E-01
RMM:   2    -0.451933920689E+03   -0.22196E-01   -0.24968E-01  2638   0.631E-01    0.360E-01
RMM:   3    -0.451935831414E+03   -0.19107E-02   -0.20988E-02  2426   0.197E-01    0.159E-01
RMM:   4    -0.451936095616E+03   -0.26420E-03   -0.38441E-03  2399   0.754E-02    0.126E-01
RMM:   5    -0.451936416023E+03   -0.32041E-03   -0.23967E-03  2061   0.526E-02    0.475E-02
RMM:   6    -0.451936528620E+03   -0.11260E-03   -0.93633E-04  1599   0.255E-02    0.321E-02
RMM:   7    -0.451936580896E+03   -0.52275E-04   -0.69746E-04  1587   0.219E-02
  16 F= -.45193658E+03 E0= -.45191951E+03  d E =-.154345E-01
       N       E                     dE             d eps       ncg     rms          rms(c)
DAV:   1    -0.451823301541E+03    0.11323E+00   -0.33733E+01  2688   0.871E+00    0.110E+00
RMM:   2    -0.451922220500E+03   -0.98919E-01   -0.11073E+00  2715   0.131E+00    0.911E-01
RMM:   3    -0.451930339029E+03   -0.81185E-02   -0.92680E-02  2721   0.418E-01    0.353E-01
RMM:   4    -0.451931204780E+03   -0.86575E-03   -0.18560E-02  2851   0.161E-01    0.291E-01
RMM:   5    -0.451931766463E+03   -0.56168E-03   -0.10422E-02  2661   0.107E-01    0.957E-02
RMM:   6    -0.451932271571E+03   -0.50511E-03   -0.44128E-03  2192   0.521E-02    0.632E-02
RMM:   7    -0.451932461103E+03   -0.18953E-03   -0.29978E-03  1930   0.413E-02    0.392E-02
RMM:   8    -0.451932634202E+03   -0.17310E-03   -0.16327E-03  1614   0.272E-02    0.288E-02
RMM:   9    -0.451932638854E+03   -0.46519E-05   -0.11878E-03  1922   0.301E-02    0.260E-02
RMM:  10    -0.451932687519E+03   -0.48665E-04   -0.64416E-04  1329   0.194E-02
  17 F= -.45193269E+03 E0= -.45191562E+03  d E =-.115412E-01
       N       E                     dE             d eps       ncg     rms          rms(c)
DAV:   1    -0.451925401711E+03    0.72371E-02   -0.44330E+00  2704   0.317E+00    0.389E-01
RMM:   2    -0.451936571227E+03   -0.11170E-01   -0.12972E-01  2625   0.467E-01    0.167E-01
RMM:   3    -0.451937556686E+03   -0.98546E-03   -0.10444E-02  2315   0.143E-01    0.104E-01
RMM:   4    -0.451937684060E+03   -0.12737E-03   -0.18910E-03  2088   0.551E-02    0.724E-02
RMM:   5    -0.451937869413E+03   -0.18535E-03   -0.95534E-04  1746   0.337E-02    0.353E-02
RMM:   6    -0.451937908829E+03   -0.39415E-04   -0.20538E-04  1415   0.167E-02
  18 F= -.45193791E+03 E0= -.45192084E+03  d E =-.167625E-01
       N       E                     dE             d eps       ncg     rms          rms(c)
DAV:   1    -0.451928778054E+03    0.90914E-02   -0.35038E+00  2688   0.278E+00    0.323E-01
RMM:   2    -0.451937656854E+03   -0.88788E-02   -0.99722E-02  2559   0.405E-01    0.144E-01
RMM:   3    -0.451938386663E+03   -0.72981E-03   -0.83692E-03  2249   0.125E-01    0.969E-02
RMM:   4    -0.451938519231E+03   -0.13257E-03   -0.19800E-03  2030   0.499E-02    0.657E-02
RMM:   5    -0.451938670561E+03   -0.15133E-03   -0.10212E-03  1709   0.312E-02    0.330E-02
RMM:   6    -0.451938740636E+03   -0.70075E-04   -0.40721E-04  1346   0.179E-02
  19 F= -.45193874E+03 E0= -.45192167E+03  d E =-.175943E-01
       N       E                     dE             d eps       ncg     rms          rms(c)
DAV:   1    -0.451935640062E+03    0.30305E-02   -0.73937E-01  2816   0.128E+00    0.145E-01
RMM:   2    -0.451937668148E+03   -0.20281E-02   -0.22491E-02  2284   0.187E-01    0.708E-02
RMM:   3    -0.451937849066E+03   -0.18092E-03   -0.19660E-03  1813   0.579E-02    0.479E-02
RMM:   4    -0.451937900714E+03   -0.51648E-04   -0.51096E-04  1461   0.252E-02
  20 F= -.45193790E+03 E0= -.45192083E+03  d E =-.167543E-01
       N       E                     dE             d eps       ncg     rms          rms(c)
DAV:   1    -0.451941763522E+03   -0.39145E-02   -0.35899E-01  2944   0.114E+00    0.933E-02
RMM:   2    -0.451942462562E+03   -0.69904E-03   -0.76194E-03  2253   0.156E-01    0.518E-02
RMM:   3    -0.451942479572E+03   -0.17010E-04   -0.56836E-04  1712   0.463E-02
  21 F= -.45194248E+03 E0= -.45192541E+03  d E =-.457886E-02
       N       E                     dE             d eps       ncg     rms          rms(c)
DAV:   1    -0.451942551914E+03   -0.89352E-04   -0.32485E+00  2736   0.342E+00    0.280E-01
RMM:   2    -0.451948892514E+03   -0.63406E-02   -0.70214E-02  2536   0.468E-01    0.173E-01
RMM:   3    -0.451948852860E+03    0.39654E-04   -0.49243E-03  2339   0.138E-01    0.969E-02
RMM:   4    -0.451948772490E+03    0.80371E-04   -0.12447E-03  2294   0.592E-02    0.623E-02
RMM:   5    -0.451948795787E+03   -0.23297E-04   -0.45491E-04  1849   0.325E-02
  22 F= -.45194880E+03 E0= -.45193173E+03  d E =-.108951E-01
       N       E                     dE             d eps       ncg     rms          rms(c)
DAV:   1    -0.451952286432E+03   -0.35139E-02   -0.67917E-01  2792   0.151E+00    0.125E-01
RMM:   2    -0.451953608833E+03   -0.13224E-02   -0.14689E-02  2297   0.202E-01    0.891E-02
RMM:   3    -0.451953650626E+03   -0.41793E-04   -0.11539E-03  1936   0.602E-02    0.506E-02
RMM:   4    -0.451953650688E+03   -0.61715E-07   -0.29040E-04  1485   0.263E-02
  23 F= -.45195365E+03 E0= -.45193658E+03  d E =-.485490E-02
       N       E                     dE             d eps       ncg     rms          rms(c)
DAV:   1    -0.451949073678E+03    0.45769E-02   -0.45987E+00  2688   0.391E+00    0.352E-01
RMM:   2    -0.451958105979E+03   -0.90323E-02   -0.10319E-01  2566   0.530E-01    0.254E-01
RMM:   3    -0.451958332192E+03   -0.22621E-03   -0.78097E-03  2400   0.157E-01    0.140E-01
RMM:   4    -0.451958214521E+03    0.11767E-03   -0.17664E-03  2342   0.674E-02    0.962E-02
RMM:   5    -0.451958213248E+03    0.12737E-05   -0.89335E-04  2082   0.449E-02
  24 F= -.45195821E+03 E0= -.45194114E+03  d E =-.941746E-02
       N       E                     dE             d eps       ncg     rms          rms(c)
DAV:   1    -0.451958630881E+03   -0.41636E-03   -0.25578E-01  2792   0.835E-01    0.961E-02
RMM:   2    -0.451959365816E+03   -0.73493E-03   -0.81556E-03  2351   0.142E-01    0.872E-02
RMM:   3    -0.451959424427E+03   -0.58611E-04   -0.83119E-04  1798   0.456E-02
  25 F= -.45195942E+03 E0= -.45194235E+03  d E =-.121118E-02
       N       E                     dE             d eps       ncg     rms          rms(c)
DAV:   1    -0.451959427569E+03   -0.61753E-04   -0.19098E-02  2832   0.231E-01    0.498E-02
RMM:   2    -0.451959495431E+03   -0.67862E-04   -0.65332E-04  1666   0.389E-02
  26 F= -.45195950E+03 E0= -.45194242E+03  d E =-.128218E-02
       N       E                     dE             d eps       ncg     rms          rms(c)
DAV:   1    -0.451960440172E+03   -0.10126E-02   -0.99326E-02  2816   0.316E-01    0.551E-02
RMM:   2    -0.451960733532E+03   -0.29336E-03   -0.27655E-03  1668   0.567E-02    0.377E-02
RMM:   3    -0.451960782888E+03   -0.49355E-04   -0.26246E-04  1375   0.202E-02
  27 F= -.45196078E+03 E0= -.45194371E+03  d E =-.128746E-02
       N       E                     dE             d eps       ncg     rms          rms(c)
DAV:   1    -0.451960800379E+03   -0.66847E-04   -0.88618E-01  2800   0.942E-01    0.166E-01
RMM:   2    -0.451963079770E+03   -0.22794E-02   -0.24303E-02  2419   0.166E-01    0.111E-01
RMM:   3    -0.451963360934E+03   -0.28116E-03   -0.23005E-03  1876   0.559E-02    0.563E-02
RMM:   4    -0.451963440961E+03   -0.80027E-04   -0.38692E-04  1554   0.255E-02
  28 F= -.45196344E+03 E0= -.45194637E+03  d E =-.394553E-02
       N       E                     dE             d eps       ncg     rms          rms(c)
DAV:   1    -0.451953700318E+03    0.96606E-02   -0.35237E+00  2800   0.189E+00    0.352E-01
RMM:   2    -0.451962449053E+03   -0.87487E-02   -0.10017E-01  2632   0.337E-01    0.249E-01
RMM:   3    -0.451963491566E+03   -0.10425E-02   -0.10041E-02  2505   0.116E-01    0.114E-01
RMM:   4    -0.451963656140E+03   -0.16457E-03   -0.15831E-03  1786   0.462E-02    0.827E-02
RMM:   5    -0.451963964109E+03   -0.30797E-03   -0.11425E-03  1720   0.393E-02    0.291E-02
RMM:   6    -0.451964068160E+03   -0.10405E-03   -0.52628E-04  1499   0.201E-02    0.144E-02
RMM:   7    -0.451964147642E+03   -0.79482E-04   -0.34706E-04  1357   0.166E-02
  29 F= -.45196415E+03 E0= -.45194708E+03  d E =-.465221E-02
       N       E                     dE             d eps       ncg     rms          rms(c)
DAV:   1    -0.451964326064E+03   -0.25790E-03   -0.44214E-03  2632   0.790E-02    0.117E-02
RMM:   2    -0.451964369200E+03   -0.43136E-04   -0.27144E-04  1297   0.157E-02
  30 F= -.45196437E+03 E0= -.45194730E+03  d E =-.221558E-03
       N       E                     dE             d eps       ncg     rms          rms(c)
DAV:   1    -0.451964613168E+03   -0.28710E-03   -0.32071E-02  2832   0.202E-01    0.251E-02
RMM:   2    -0.451964731605E+03   -0.11844E-03   -0.10031E-03  1499   0.330E-02    0.190E-02
RMM:   3    -0.451964755060E+03   -0.23456E-04   -0.12684E-04  1108   0.123E-02
  31 F= -.45196476E+03 E0= -.45194768E+03  d E =-.607418E-03
       N       E                     dE             d eps       ncg     rms          rms(c)
DAV:   1    -0.451965010353E+03   -0.27875E-03   -0.12999E-01  2912   0.404E-01    0.571E-02
RMM:   2    -0.451965381621E+03   -0.37127E-03   -0.35785E-03  1753   0.645E-02    0.367E-02
RMM:   3    -0.451965433526E+03   -0.51905E-04   -0.32309E-04  1283   0.223E-02
  32 F= -.45196543E+03 E0= -.45194836E+03  d E =-.128588E-02
       N       E                     dE             d eps       ncg     rms          rms(c)
DAV:   1    -0.451965093090E+03    0.28853E-03   -0.52350E-01  2800   0.809E-01    0.121E-01
RMM:   2    -0.451966471106E+03   -0.13780E-02   -0.14197E-02  2185   0.129E-01    0.735E-02
RMM:   3    -0.451966639566E+03   -0.16846E-03   -0.13106E-03  1659   0.426E-02    0.385E-02
RMM:   4    -0.451966688752E+03   -0.49186E-04   -0.22160E-04  1272   0.190E-02
  33 F= -.45196669E+03 E0= -.45194962E+03  d E =-.254111E-02
       N       E                     dE             d eps       ncg     rms          rms(c)
DAV:   1    -0.451962770707E+03    0.38689E-02   -0.20808E+00  2800   0.162E+00    0.264E-01
RMM:   2    -0.451967888292E+03   -0.51176E-02   -0.57706E-02  2459   0.259E-01    0.155E-01
RMM:   3    -0.451968499174E+03   -0.61088E-03   -0.55729E-03  2201   0.866E-02    0.719E-02
RMM:   4    -0.451968608437E+03   -0.10926E-03   -0.83581E-04  1628   0.326E-02    0.519E-02
RMM:   5    -0.451968805917E+03   -0.19748E-03   -0.62873E-04  1649   0.271E-02    0.203E-02
RMM:   6    -0.451968865457E+03   -0.59539E-04   -0.28423E-04  1199   0.149E-02
  34 F= -.45196887E+03 E0= -.45195179E+03  d E =-.471781E-02
       N       E                     dE             d eps       ncg     rms          rms(c)
DAV:   1    -0.451946362923E+03    0.22443E-01   -0.85078E+00  2800   0.327E+00    0.529E-01
RMM:   2    -0.451967889268E+03   -0.21526E-01   -0.23990E-01  2647   0.532E-01    0.379E-01
RMM:   3    -0.451970181757E+03   -0.22925E-02   -0.23457E-02  2609   0.181E-01    0.156E-01
RMM:   4    -0.451970490493E+03   -0.30874E-03   -0.39385E-03  2075   0.644E-02    0.120E-01
RMM:   5    -0.451970995505E+03   -0.50501E-03   -0.26705E-03  1845   0.497E-02    0.386E-02
RMM:   6    -0.451971187651E+03   -0.19215E-03   -0.11665E-03  1505   0.248E-02    0.212E-02
RMM:   7    -0.451971335488E+03   -0.14784E-03   -0.80406E-04  1494   0.214E-02    0.200E-02
RMM:   8    -0.451971434968E+03   -0.99481E-04   -0.45878E-04  1193   0.149E-02
  35 F= -.45197143E+03 E0= -.45195436E+03  d E =-.728733E-02
       N       E                     dE             d eps       ncg     rms          rms(c)
DAV:   1    -0.451859442704E+03    0.11189E+00   -0.34882E+01  2800   0.663E+00    0.113E+00
RMM:   2    -0.451954203728E+03   -0.94761E-01   -0.10675E+00  2702   0.110E+00    0.976E-01
RMM:   3    -0.451965089359E+03   -0.10886E-01   -0.11487E-01  2901   0.390E-01    0.361E-01
RMM:   4    -0.451966024607E+03   -0.93525E-03   -0.18746E-02  2675   0.130E-01    0.276E-01
RMM:   5    -0.451966967644E+03   -0.94304E-03   -0.88954E-03  2318   0.838E-02    0.858E-02
RMM:   6    -0.451967880554E+03   -0.91291E-03   -0.47489E-03  1944   0.510E-02    0.378E-02
RMM:   7    -0.451968335026E+03   -0.45447E-03   -0.31132E-03  1626   0.357E-02    0.378E-02
RMM:   8    -0.451968644071E+03   -0.30904E-03   -0.17839E-03  1368   0.247E-02    0.249E-02
RMM:   9    -0.451968912253E+03   -0.26818E-03   -0.11406E-03  1592   0.239E-02    0.234E-02
RMM:  10    -0.451969008345E+03   -0.96092E-04   -0.69115E-04  1156   0.163E-02
  36 F= -.45196901E+03 E0= -.45195194E+03  d E =-.486070E-02
       N       E                     dE             d eps       ncg     rms          rms(c)
DAV:   1    -0.451969515829E+03   -0.60358E-03   -0.24308E+00  2808   0.188E+00    0.266E-01
RMM:   2    -0.451975519434E+03   -0.60036E-02   -0.65944E-02  2483   0.294E-01    0.136E-01
RMM:   3    -0.451976122225E+03   -0.60279E-03   -0.61382E-03  2226   0.946E-02    0.693E-02
RMM:   4    -0.451976235455E+03   -0.11323E-03   -0.12285E-03  1647   0.368E-02    0.500E-02
RMM:   5    -0.451976383086E+03   -0.14763E-03   -0.79291E-04  1609   0.263E-02    0.160E-02
RMM:   6    -0.451976450655E+03   -0.67569E-04   -0.39152E-04  1187   0.156E-02
  37 F= -.45197645E+03 E0= -.45195938E+03  d E =-.744231E-02
       N       E                     dE             d eps       ncg     rms          rms(c)
DAV:   1    -0.451926569210E+03    0.49814E-01   -0.22387E+01  2792   0.568E+00    0.846E-01
RMM:   2    -0.451983050267E+03   -0.56481E-01   -0.62802E-01  2678   0.913E-01    0.619E-01
RMM:   3    -0.451988928393E+03   -0.58781E-02   -0.63597E-02  2737   0.306E-01    0.237E-01
RMM:   4    -0.451989584315E+03   -0.65592E-03   -0.10656E-02  2585   0.106E-01    0.183E-01
RMM:   5    -0.451990207655E+03   -0.62334E-03   -0.54357E-03  2064   0.656E-02    0.494E-02
RMM:   6    -0.451990722159E+03   -0.51450E-03   -0.26793E-03  1747   0.386E-02    0.247E-02
RMM:   7    -0.451990995120E+03   -0.27296E-03   -0.17386E-03  1446   0.258E-02    0.249E-02
RMM:   8    -0.451991188273E+03   -0.19315E-03   -0.10079E-03  1266   0.191E-02    0.182E-02
RMM:   9    -0.451991361440E+03   -0.17317E-03   -0.63865E-04  1500   0.185E-02    0.133E-02
RMM:  10    -0.451991412953E+03   -0.51513E-04   -0.38682E-04  1083   0.127E-02
  38 F= -.45199141E+03 E0= -.45197434E+03  d E =-.224046E-01
       N       E                     dE             d eps       ncg     rms          rms(c)
DAV:   1    -0.451663332808E+03    0.32803E+00   -0.94237E+01  2800   0.116E+01    0.178E+00
RMM:   2    -0.451940230341E+03   -0.27690E+00   -0.31015E+00  2702   0.192E+00    0.157E+00
RMM:   3    -0.451974889237E+03   -0.34659E-01   -0.36293E-01  3002   0.677E-01    0.570E-01
RMM:   4    -0.451977737532E+03   -0.28483E-02   -0.60987E-02  3111   0.232E-01    0.431E-01
RMM:   5    -0.451978724222E+03   -0.98669E-03   -0.22403E-02  2699   0.126E-01    0.160E-01
RMM:   6    -0.451980753936E+03   -0.20297E-02   -0.12994E-02  2403   0.903E-02    0.656E-02
RMM:   7    -0.451981865896E+03   -0.11120E-02   -0.81123E-03  1912   0.526E-02    0.477E-02
RMM:   8    -0.451982566107E+03   -0.70021E-03   -0.48908E-03  1527   0.356E-02    0.478E-02
RMM:   9    -0.451983004785E+03   -0.43868E-03   -0.30780E-03  1369   0.276E-02    0.555E-02
RMM:  10    -0.451983353988E+03   -0.34920E-03   -0.18734E-03  1574   0.257E-02    0.200E-02
RMM:  11    -0.451983620083E+03   -0.26609E-03   -0.11899E-03  1426   0.218E-02    0.203E-02
RMM:  12    -0.451983720429E+03   -0.10035E-03   -0.74658E-04  1115   0.155E-02    0.713E-03
RMM:  13    -0.451983816895E+03   -0.96466E-04   -0.47977E-04  1460   0.152E-02
  39 F= -.45198382E+03 E0= -.45196674E+03  d E =-.148085E-01
       N       E                     dE             d eps       ncg     rms          rms(c)
DAV:   1    -0.451952470523E+03    0.31250E-01   -0.15991E+01  2800   0.477E+00    0.697E-01
RMM:   2    -0.451988811958E+03   -0.36341E-01   -0.41431E-01  2672   0.758E-01    0.329E-01
RMM:   3    -0.451992491801E+03   -0.36798E-02   -0.39412E-02  2689   0.249E-01    0.165E-01
RMM:   4    -0.451992716215E+03   -0.22441E-03   -0.50909E-03  2439   0.833E-02    0.115E-01
RMM:   5    -0.451993054272E+03   -0.33806E-03   -0.31431E-03  2014   0.550E-02    0.393E-02
RMM:   6    -0.451993264511E+03   -0.21024E-03   -0.97506E-04  1641   0.260E-02    0.201E-02
RMM:   7    -0.451993444308E+03   -0.17980E-03   -0.66044E-04  1385   0.195E-02    0.201E-02
RMM:   8    -0.451993542694E+03   -0.98385E-04   -0.36644E-04  1151   0.133E-02
  40 F= -.45199354E+03 E0= -.45197647E+03  d E =-.245343E-01
       N       E                     dE             d eps       ncg     rms          rms(c)
DAV:   1    -0.451974671467E+03    0.18773E-01   -0.77347E+00  2800   0.331E+00    0.457E-01
RMM:   2    -0.451992040892E+03   -0.17369E-01   -0.19511E-01  2627   0.518E-01    0.170E-01
RMM:   3    -0.451993695148E+03   -0.16543E-02   -0.17672E-02  2566   0.168E-01    0.112E-01
RMM:   4    -0.451993976327E+03   -0.28118E-03   -0.34671E-03  2111   0.612E-02    0.779E-02
RMM:   5    -0.451994252399E+03   -0.27607E-03   -0.17976E-03  1757   0.385E-02    0.255E-02
RMM:   6    -0.451994452268E+03   -0.19987E-03   -0.84255E-04  1446   0.217E-02    0.151E-02
RMM:   7    -0.451994601595E+03   -0.14933E-03   -0.54975E-04  1325   0.171E-02    0.178E-02
RMM:   8    -0.451994670757E+03   -0.69162E-04   -0.31093E-04  1065   0.121E-02
  41 F= -.45199467E+03 E0= -.45197760E+03  d E =-.256624E-01
       N       E                     dE             d eps       ncg     rms          rms(c)
DAV:   1    -0.452003679743E+03   -0.90781E-02   -0.10862E+00  2800   0.930E-01    0.184E-01
RMM:   2    -0.452005938592E+03   -0.22588E-02   -0.25398E-02  2338   0.157E-01    0.665E-02
RMM:   3    -0.452006180390E+03   -0.24180E-03   -0.22560E-03  1765   0.518E-02    0.386E-02
RMM:   4    -0.452006210644E+03   -0.30254E-04   -0.31050E-04  1433   0.229E-02
  42 F= -.45200621E+03 E0= -.45198914E+03  d E =-.115399E-01
       N       E                     dE             d eps       ncg     rms          rms(c)
DAV:   1    -0.452009471168E+03   -0.32908E-02   -0.96205E+00  2800   0.279E+00    0.536E-01
RMM:   2    -0.452031401247E+03   -0.21930E-01   -0.24657E-01  2649   0.486E-01    0.277E-01
RMM:   3    -0.452033878926E+03   -0.24777E-02   -0.24542E-02  2710   0.167E-01    0.136E-01
RMM:   4    -0.452034253856E+03   -0.37493E-03   -0.44707E-03  2017   0.624E-02    0.917E-02
RMM:   5    -0.452034661140E+03   -0.40728E-03   -0.24644E-03  1739   0.439E-02    0.278E-02
RMM:   6    -0.452034901082E+03   -0.23994E-03   -0.11675E-03  1503   0.230E-02    0.165E-02
RMM:   7    -0.452035064503E+03   -0.16342E-03   -0.77016E-04  1328   0.192E-02    0.207E-02
RMM:   8    -0.452035148089E+03   -0.83586E-04   -0.44332E-04  1111   0.132E-02
  43 F= -.45203515E+03 E0= -.45201808E+03  d E =-.404773E-01
       N       E                     dE             d eps       ncg     rms          rms(c)
DAV:   1    -0.451950569922E+03    0.84495E-01   -0.39556E+01  2800   0.565E+00    0.113E+00
RMM:   2    -0.452050810041E+03   -0.10024E+00   -0.11313E+00  2695   0.102E+00    0.801E-01
RMM:   3    -0.452063220888E+03   -0.12411E-01   -0.12595E-01  3018   0.363E-01    0.323E-01
RMM:   4    -0.452064513608E+03   -0.12927E-02   -0.21352E-02  2738   0.128E-01    0.231E-01
RMM:   5    -0.452065334575E+03   -0.82097E-03   -0.87579E-03  2308   0.772E-02    0.807E-02
RMM:   6    -0.452066361911E+03   -0.10273E-02   -0.48459E-03  1898   0.508E-02    0.457E-02
RMM:   7    -0.452066915228E+03   -0.55332E-03   -0.31597E-03  1634   0.345E-02    0.315E-02
RMM:   8    -0.452067218097E+03   -0.30287E-03   -0.18348E-03  1338   0.237E-02    0.246E-02
RMM:   9    -0.452067486946E+03   -0.26885E-03   -0.11662E-03  1473   0.215E-02    0.271E-02
RMM:  10    -0.452067621171E+03   -0.13423E-03   -0.72336E-04  1286   0.172E-02    0.530E-03
RMM:  11    -0.452067701299E+03   -0.80128E-04   -0.45887E-04  1111   0.136E-02
  44 F= -.45206770E+03 E0= -.45205063E+03  d E =-.730305E-01
       N       E                     dE             d eps       ncg     rms          rms(c)
DAV:   1    -0.451292749830E+03    0.77487E+00   -0.17168E+02  2800   0.116E+01    0.239E+00
RMM:   2    -0.451896246024E+03   -0.60350E+00   -0.68512E+00  2700   0.221E+00    0.208E+00
RMM:   3    -0.451995598186E+03   -0.99352E-01   -0.96650E-01  3206   0.850E-01    0.805E-01
RMM:   4    -0.452006543434E+03   -0.10945E-01   -0.17948E-01  3401   0.296E-01    0.601E-01
RMM:   5    -0.452008463377E+03   -0.19199E-02   -0.48610E-02  3157   0.154E-01    0.330E-01
RMM:   6    -0.452011858867E+03   -0.33955E-02   -0.31000E-02  2645   0.133E-01    0.161E-01
RMM:   7    -0.452014658524E+03   -0.27997E-02   -0.19182E-02  2547   0.838E-02    0.646E-02
RMM:   8    -0.452016254235E+03   -0.15957E-02   -0.12093E-02  1693   0.527E-02    0.733E-02
RMM:   9    -0.452017226130E+03   -0.97189E-03   -0.73765E-03  1494   0.384E-02    0.103E-01
RMM:  10    -0.452018053974E+03   -0.82784E-03   -0.46712E-03  1639   0.370E-02    0.824E-02
RMM:  11    -0.452018502784E+03   -0.44881E-03   -0.28564E-03  1380   0.272E-02    0.713E-02
RMM:  12    -0.452018772808E+03   -0.27002E-03   -0.17810E-03  1538   0.259E-02    0.360E-02
RMM:  13    -0.452018883446E+03   -0.11064E-03   -0.10940E-03  1392   0.217E-02    0.176E-02
RMM:  14    -0.452018956009E+03   -0.72563E-04   -0.66684E-04  1410   0.178E-02
  45 F= -.45201896E+03 E0= -.45200189E+03  d E =-.242853E-01
       N       E                     dE             d eps       ncg     rms          rms(c)
DAV:   1    -0.451827273004E+03    0.19161E+00   -0.79387E+01  2800   0.783E+00    0.160E+00
RMM:   2    -0.452035116069E+03   -0.20784E+00   -0.23948E+00  2695   0.148E+00    0.125E+00
RMM:   3    -0.452064422397E+03   -0.29306E-01   -0.29132E-01  3205   0.535E-01    0.491E-01
RMM:   4    -0.452065864747E+03   -0.14423E-02   -0.39740E-02  3104   0.174E-01    0.358E-01
RMM:   5    -0.452066327748E+03   -0.46300E-03   -0.12769E-02  2787   0.958E-02    0.148E-01
RMM:   6    -0.452067618100E+03   -0.12904E-02   -0.69421E-03  2484   0.676E-02    0.639E-02
RMM:   7    -0.452068307283E+03   -0.68918E-03   -0.42021E-03  1871   0.403E-02    0.299E-02
RMM:   8    -0.452068688988E+03   -0.38170E-03   -0.24830E-03  1540   0.267E-02    0.336E-02
RMM:   9    -0.452068926172E+03   -0.23718E-03   -0.15414E-03  1325   0.203E-02    0.379E-02
RMM:  10    -0.452069041092E+03   -0.11492E-03   -0.97446E-04  1184   0.163E-02    0.554E-02
RMM:  11    -0.452069336475E+03   -0.29538E-03   -0.65037E-04  1601   0.200E-02    0.105E-02
RMM:  12    -0.452069422845E+03   -0.86370E-04   -0.37117E-04  1106   0.122E-02
  46 F= -.45206942E+03 E0= -.45205235E+03  d E =-.747521E-01
       N       E                     dE             d eps       ncg     rms          rms(c)
DAV:   1    -0.452063897167E+03    0.54393E-02   -0.27106E+00  2816   0.146E+00    0.275E-01
RMM:   2    -0.452069540396E+03   -0.56432E-02   -0.63855E-02  2523   0.253E-01    0.117E-01
RMM:   3    -0.452070168479E+03   -0.62808E-03   -0.63493E-03  2300   0.848E-02    0.688E-02
RMM:   4    -0.452070263591E+03   -0.95112E-04   -0.12029E-03  1661   0.346E-02    0.413E-02
RMM:   5    -0.452070395015E+03   -0.13142E-03   -0.77978E-04  1555   0.249E-02    0.148E-02
RMM:   6    -0.452070463241E+03   -0.68226E-04   -0.38846E-04  1241   0.146E-02
  47 F= -.45207046E+03 E0= -.45205339E+03  d E =-.757925E-01
       N       E                     dE             d eps       ncg     rms          rms(c)
DAV:   1    -0.452077351199E+03   -0.69562E-02   -0.74208E-01  2880   0.943E-01    0.146E-01
RMM:   2    -0.452078775316E+03   -0.14241E-02   -0.16107E-02  2242   0.149E-01    0.528E-02
RMM:   3    -0.452078925102E+03   -0.14979E-03   -0.13673E-03  1692   0.475E-02    0.280E-02
RMM:   4    -0.452078961800E+03   -0.36699E-04   -0.21793E-04  1270   0.204E-02
  48 F= -.45207896E+03 E0= -.45206189E+03  d E =-.849856E-02
       N       E                     dE             d eps       ncg     rms          rms(c)
DAV:   1    -0.452085631257E+03   -0.67062E-02   -0.90030E-01  2800   0.105E+00    0.149E-01
RMM:   2    -0.452087495233E+03   -0.18640E-02   -0.20423E-02  2281   0.164E-01    0.529E-02
RMM:   3    -0.452087717869E+03   -0.22264E-03   -0.18959E-03  1792   0.532E-02    0.344E-02
RMM:   4    -0.452087780113E+03   -0.62244E-04   -0.33782E-04  1326   0.229E-02
  49 F= -.45208778E+03 E0= -.45207071E+03  d E =-.173169E-01
       N       E                     dE             d eps       ncg     rms          rms(c)
DAV:   1    -0.452095315531E+03   -0.75977E-02   -0.36081E+00  2800   0.210E+00    0.299E-01
RMM:   2    -0.452102825532E+03   -0.75100E-02   -0.83744E-02  2531   0.333E-01    0.117E-01
RMM:   3    -0.452103657492E+03   -0.83196E-03   -0.80683E-03  2365   0.109E-01    0.743E-02
RMM:   4    -0.452103816838E+03   -0.15935E-03   -0.14246E-03  1734   0.410E-02    0.474E-02
RMM:   5    -0.452104037550E+03   -0.22071E-03   -0.88909E-04  1642   0.287E-02    0.188E-02
RMM:   6    -0.452104118300E+03   -0.80750E-04   -0.41504E-04  1240   0.159E-02
  50 F= -.45210412E+03 E0= -.45208705E+03  d E =-.336551E-01
       N       E                     dE             d eps       ncg     rms          rms(c)
DAV:   1    -0.452094056019E+03    0.99815E-02   -0.14644E+01  2800   0.423E+00    0.604E-01
RMM:   2    -0.452125885355E+03   -0.31829E-01   -0.35349E-01  2665   0.684E-01    0.313E-01
RMM:   3    -0.452129331684E+03   -0.34463E-02   -0.36237E-02  2671   0.226E-01    0.164E-01
RMM:   4    -0.452129730352E+03   -0.39867E-03   -0.55844E-03  2296   0.781E-02    0.111E-01
RMM:   5    -0.452130263651E+03   -0.53330E-03   -0.37045E-03  1942   0.552E-02    0.404E-02
RMM:   6    -0.452130522831E+03   -0.25918E-03   -0.15614E-03  1576   0.275E-02    0.216E-02
RMM:   7    -0.452130736310E+03   -0.21348E-03   -0.10705E-03  1519   0.239E-02    0.240E-02
RMM:   8    -0.452130868130E+03   -0.13182E-03   -0.61127E-04  1227   0.158E-02    0.199E-02
RMM:   9    -0.452131013472E+03   -0.14534E-03   -0.43655E-04  1561   0.205E-02    0.143E-02
RMM:  10    -0.452131067445E+03   -0.53973E-04   -0.24131E-04  1137   0.120E-02
  51 F= -.45213107E+03 E0= -.45211400E+03  d E =-.606042E-01
       N       E                     dE             d eps       ncg     rms          rms(c)
DAV:   1    -0.451989021340E+03    0.14199E+00   -0.60079E+01  2800   0.851E+00    0.133E+00
RMM:   2    -0.452134869509E+03   -0.14585E+00   -0.16547E+00  2702   0.142E+00    0.931E-01
RMM:   3    -0.452152967533E+03   -0.18098E-01   -0.18806E-01  2964   0.492E-01    0.383E-01
RMM:   4    -0.452154961768E+03   -0.19942E-02   -0.32793E-02  2840   0.166E-01    0.283E-01
RMM:   5    -0.452155673741E+03   -0.71197E-03   -0.11450E-02  2470   0.925E-02    0.118E-01
RMM:   6    -0.452156798216E+03   -0.11245E-02   -0.63653E-03  2150   0.639E-02    0.553E-02
RMM:   7    -0.452157419174E+03   -0.62096E-03   -0.39691E-03  1751   0.402E-02    0.320E-02
RMM:   8    -0.452157782881E+03   -0.36371E-03   -0.23457E-03  1433   0.269E-02    0.313E-02
RMM:   9    -0.452158108492E+03   -0.32561E-03   -0.15036E-03  1626   0.273E-02    0.339E-02
RMM:  10    -0.452158274672E+03   -0.16618E-03   -0.95879E-04  1491   0.234E-02    0.195E-02
RMM:  11    -0.452158374503E+03   -0.99831E-04   -0.60986E-04  1341   0.183E-02
  52 F= -.45215837E+03 E0= -.45214131E+03  d E =-.879113E-01
       N       E                     dE             d eps       ncg     rms          rms(c)
DAV:   1    -0.450910957952E+03    0.12473E+01   -0.25944E+02  2800   0.174E+01    0.304E+00
RMM:   2    -0.451874593359E+03   -0.96364E+00   -0.10982E+01  2709   0.311E+00    0.261E+00
RMM:   3    -0.452045878710E+03   -0.17129E+00   -0.16789E+00  3145   0.117E+00    0.103E+00
RMM:   4    -0.452070342897E+03   -0.24464E-01   -0.35370E-01  3628   0.402E-01    0.810E-01
RMM:   5    -0.452073263041E+03   -0.29201E-02   -0.80238E-02  3498   0.197E-01    0.512E-01
RMM:   6    -0.452076479917E+03   -0.32169E-02   -0.50640E-02  2844   0.172E-01    0.198E-01
RMM:   7    -0.452080713446E+03   -0.42335E-02   -0.30311E-02  2674   0.109E-01    0.100E-01
RMM:   8    -0.452083195732E+03   -0.24823E-02   -0.19299E-02  2192   0.669E-02    0.820E-02
RMM:   9    -0.452084680237E+03   -0.14845E-02   -0.11251E-02  1609   0.447E-02    0.996E-02
RMM:  10    -0.452085759184E+03   -0.10789E-02   -0.73819E-03  1571   0.371E-02    0.169E-01
RMM:  11    -0.452086471009E+03   -0.71183E-03   -0.51107E-03  2450   0.680E-02    0.279E-01
RMM:  12    -0.452086737429E+03   -0.26642E-03   -0.25335E-03  1592   0.255E-02    0.236E-01
RMM:  13    -0.452086842309E+03   -0.10488E-03   -0.20699E-03  1723   0.345E-02    0.590E-02
RMM:  14    -0.452086929050E+03   -0.86741E-04   -0.13608E-03  1663   0.269E-02    0.497E-02
RMM:  15    -0.452087014039E+03   -0.84989E-04   -0.10089E-03  1747   0.275E-02    0.160E-01
RMM:  16    -0.452087021121E+03   -0.70820E-05   -0.53175E-04  1369   0.178E-02
  53 F= -.45208702E+03 E0= -.45206996E+03  d E =-.165579E-01
       N       E                     dE             d eps       ncg     rms          rms(c)
DAV:   1    -0.451644605662E+03    0.44241E+00   -0.14839E+02  2800   0.134E+01    0.208E+00
RMM:   2    -0.452083210401E+03   -0.43860E+00   -0.49731E+00  2704   0.226E+00    0.163E+00
RMM:   3    -0.452147415554E+03   -0.64205E-01   -0.65496E-01  3083   0.810E-01    0.652E-01
RMM:   4    -0.452152180527E+03   -0.47650E-02   -0.10138E-01  3359   0.263E-01    0.508E-01
RMM:   5    -0.452152207901E+03   -0.27375E-04   -0.27303E-02  3056   0.129E-01    0.268E-01
RMM:   6    -0.452153794892E+03   -0.15870E-02   -0.17038E-02  2663   0.107E-01    0.127E-01
RMM:   7    -0.452155024347E+03   -0.12295E-02   -0.98187E-03  2439   0.626E-02    0.493E-02
RMM:   8    -0.452155787951E+03   -0.76360E-03   -0.60308E-03  1706   0.390E-02    0.515E-02
RMM:   9    -0.452156268259E+03   -0.48031E-03   -0.36661E-03  1524   0.291E-02    0.546E-02
RMM:  10    -0.452156552091E+03   -0.28383E-03   -0.22738E-03  1557   0.251E-02    0.330E-02
RMM:  11    -0.452156619359E+03   -0.67267E-04   -0.15789E-03  1854   0.320E-02    0.849E-02
RMM:  12    -0.452156723418E+03   -0.10406E-03   -0.84191E-04  1312   0.173E-02    0.661E-02
RMM:  13    -0.452156840638E+03   -0.11722E-03   -0.55326E-04  1222   0.144E-02    0.319E-02
RMM:  14    -0.452156915294E+03   -0.74655E-04   -0.49302E-04  1660   0.219E-02
  54 F= -.45215692E+03 E0= -.45213985E+03  d E =-.864521E-01
       N       E                     dE             d eps       ncg     rms          rms(c)
DAV:   1    -0.452150396231E+03    0.64444E-02   -0.36038E+00  2880   0.208E+00    0.279E-01
RMM:   2    -0.452157841963E+03   -0.74457E-02   -0.82175E-02  2526   0.330E-01    0.119E-01
RMM:   3    -0.452158559762E+03   -0.71780E-03   -0.77503E-03  2389   0.106E-01    0.741E-02
RMM:   4    -0.452158665602E+03   -0.10584E-03   -0.14593E-03  1750   0.403E-02    0.532E-02
RMM:   5    -0.452158788903E+03   -0.12330E-03   -0.10038E-03  1621   0.286E-02    0.199E-02
RMM:   6    -0.452158856912E+03   -0.68009E-04   -0.44433E-04  1248   0.159E-02
  55 F= -.45215886E+03 E0= -.45214180E+03  d E =-.883937E-01
       N       E                     dE             d eps       ncg     rms          rms(c)
DAV:   1    -0.452157673941E+03    0.11150E-02   -0.46046E-01  2984   0.745E-01    0.909E-02
RMM:   2    -0.452158726180E+03   -0.10522E-02   -0.11152E-02  2171   0.119E-01    0.400E-02
RMM:   3    -0.452158837083E+03   -0.11090E-03   -0.11352E-03  1619   0.386E-02    0.310E-02
RMM:   4    -0.452158864926E+03   -0.27843E-04   -0.27358E-04  1224   0.180E-02
  56 F= -.45215886E+03 E0= -.45214180E+03  d E =-.884017E-01
       N       E                     dE             d eps       ncg     rms          rms(c)
DAV:   1    -0.452158419405E+03    0.41768E-03   -0.13133E-01  2960   0.399E-01    0.565E-02
RMM:   2    -0.452158703837E+03   -0.28443E-03   -0.32051E-03  1778   0.619E-02    0.233E-02
RMM:   3    -0.452158748074E+03   -0.44237E-04   -0.35859E-04  1290   0.220E-02
  57 F= -.45215875E+03 E0= -.45214169E+03  d E =-.882848E-01
       N       E                     dE             d eps       ncg     rms          rms(c)
DAV:   1    -0.452168943339E+03   -0.10240E-01   -0.93041E-02  2912   0.628E-01    0.661E-02
RMM:   2    -0.452169212478E+03   -0.26914E-03   -0.29639E-03  2389   0.114E-01    0.516E-02
RMM:   3    -0.452169226632E+03   -0.14154E-04   -0.32791E-04  1756   0.360E-02
  58 F= -.45216923E+03 E0= -.45215216E+03  d E =-.104786E-01
       N       E                     dE             d eps       ncg     rms          rms(c)
DAV:   1    -0.452181661227E+03   -0.12449E-01   -0.84416E-01  2752   0.189E+00    0.209E-01
RMM:   2    -0.452183791056E+03   -0.21298E-02   -0.25861E-02  2653   0.343E-01    0.157E-01
RMM:   3    -0.452183772730E+03    0.18325E-04   -0.27662E-03  2463   0.108E-01    0.112E-01
RMM:   4    -0.452183710349E+03    0.62381E-04   -0.12703E-03  2412   0.676E-02    0.514E-02
RMM:   5    -0.452183769236E+03   -0.58887E-04   -0.47759E-04  2076   0.395E-02
  59 F= -.45218377E+03 E0= -.45216671E+03  d E =-.250212E-01
       N       E                     dE             d eps       ncg     rms          rms(c)
DAV:   1    -0.452187584145E+03   -0.38738E-02   -0.28992E-01  2880   0.106E+00    0.785E-02
RMM:   2    -0.452188169037E+03   -0.58489E-03   -0.60637E-03  2392   0.152E-01    0.540E-02
RMM:   3    -0.452188187025E+03   -0.17988E-04   -0.45886E-04  1800   0.452E-02
  60 F= -.45218819E+03 E0= -.45217112E+03  d E =-.441779E-02
       N       E                     dE             d eps       ncg     rms          rms(c)
DAV:   1    -0.452189473158E+03   -0.13041E-02   -0.68104E-01  2752   0.163E+00    0.123E-01
RMM:   2    -0.452190749446E+03   -0.12763E-02   -0.13631E-02  2551   0.228E-01    0.909E-02
RMM:   3    -0.452190759488E+03   -0.10042E-04   -0.10321E-03  2067   0.685E-02    0.613E-02
RMM:   4    -0.452190770674E+03   -0.11186E-04   -0.37258E-04  1925   0.348E-02
  61 F= -.45219077E+03 E0= -.45217371E+03  d E =-.700144E-02
       N       E                     dE             d eps       ncg     rms          rms(c)
DAV:   1    -0.452193360178E+03   -0.26007E-02   -0.99658E-01  2736   0.189E+00    0.116E-01
RMM:   2    -0.452194999776E+03   -0.16396E-02   -0.17330E-02  2240   0.225E-01    0.636E-02
RMM:   3    -0.452195040552E+03   -0.40776E-04   -0.11943E-03  1899   0.650E-02    0.412E-02
RMM:   4    -0.452195059572E+03   -0.19020E-04   -0.32072E-04  1506   0.259E-02
  62 F= -.45219506E+03 E0= -.45217800E+03  d E =-.428890E-02
       N       E                     dE             d eps       ncg     rms          rms(c)
DAV:   1    -0.452187859657E+03    0.71809E-02   -0.90010E+00  2688   0.568E+00    0.348E-01
RMM:   2    -0.452203464877E+03   -0.15605E-01   -0.16476E-01  2598   0.685E-01    0.181E-01
RMM:   3    -0.452203777198E+03   -0.31232E-03   -0.10902E-02  2281   0.197E-01    0.127E-01
RMM:   4    -0.452203829028E+03   -0.51830E-04   -0.27070E-03  2559   0.756E-02    0.973E-02
RMM:   5    -0.452203732774E+03    0.96253E-04   -0.97358E-04  2194   0.462E-02
  63 F= -.45220373E+03 E0= -.45218667E+03  d E =-.129621E-01
       N       E                     dE             d eps       ncg     rms          rms(c)
DAV:   1    -0.452126818364E+03    0.77011E-01   -0.36097E+01  2688   0.114E+01    0.760E-01
RMM:   2    -0.452202176277E+03   -0.75358E-01   -0.79946E-01  2710   0.142E+00    0.384E-01
RMM:   3    -0.452204387312E+03   -0.22110E-02   -0.54314E-02  2493   0.404E-01    0.321E-01
RMM:   4    -0.452204125661E+03    0.26165E-03   -0.10279E-02  2821   0.151E-01    0.226E-01
RMM:   5    -0.452203584231E+03    0.54143E-03   -0.44743E-03  2698   0.970E-02    0.786E-02
RMM:   6    -0.452203610765E+03   -0.26534E-04   -0.14583E-03  2555   0.515E-02    0.508E-02
RMM:   7    -0.452203655893E+03   -0.45128E-04   -0.65804E-04  1813   0.293E-02
  64 F= -.45220366E+03 E0= -.45218659E+03  d E =-.128852E-01
       N       E                     dE             d eps       ncg     rms          rms(c)
DAV:   1    -0.452198546143E+03    0.50646E-02   -0.43704E+00  2752   0.395E+00    0.275E-01
RMM:   2    -0.452206221016E+03   -0.76749E-02   -0.81601E-02  2491   0.477E-01    0.131E-01
RMM:   3    -0.452206449072E+03   -0.22806E-03   -0.53848E-03  2189   0.137E-01    0.969E-02
RMM:   4    -0.452206514400E+03   -0.65328E-04   -0.12622E-03  2137   0.521E-02    0.738E-02
RMM:   5    -0.452206542113E+03   -0.27713E-04   -0.73963E-04  1960   0.442E-02
  65 F= -.45220654E+03 E0= -.45218948E+03  d E =-.157714E-01
       N       E                     dE             d eps       ncg     rms          rms(c)
DAV:   1    -0.452197501307E+03    0.90131E-02   -0.47895E+00  2688   0.414E+00    0.291E-01
RMM:   2    -0.452205980860E+03   -0.84796E-02   -0.91479E-02  2516   0.502E-01    0.146E-01
RMM:   3    -0.452206301830E+03   -0.32097E-03   -0.65691E-03  2265   0.147E-01    0.980E-02
RMM:   4    -0.452206393118E+03   -0.91288E-04   -0.16325E-03  2358   0.570E-02    0.767E-02
RMM:   5    -0.452206459076E+03   -0.65958E-04   -0.95341E-04  2233   0.480E-02
  66 F= -.45220646E+03 E0= -.45218939E+03  d E =-.156884E-01
       N       E                     dE             d eps       ncg     rms          rms(c)
DAV:   1    -0.452205129583E+03    0.12635E-02   -0.11584E+00  2760   0.204E+00    0.124E-01
RMM:   2    -0.452207065576E+03   -0.19360E-02   -0.19886E-02  2258   0.242E-01    0.594E-02
RMM:   3    -0.452207102773E+03   -0.37197E-04   -0.11901E-03  1880   0.681E-02    0.466E-02
RMM:   4    -0.452207115511E+03   -0.12738E-04   -0.22002E-04  1316   0.254E-02
  67 F= -.45220712E+03 E0= -.45219005E+03  d E =-.163448E-01
       N       E                     dE             d eps       ncg     rms          rms(c)
DAV:   1    -0.452208214088E+03   -0.11113E-02   -0.10584E+00  2704   0.190E+00    0.139E-01
RMM:   2    -0.452210140006E+03   -0.19259E-02   -0.21380E-02  2455   0.256E-01    0.833E-02
RMM:   3    -0.452210187833E+03   -0.47827E-04   -0.16269E-03  2095   0.761E-02    0.559E-02
RMM:   4    -0.452210188372E+03   -0.53948E-06   -0.42607E-04  1746   0.324E-02
  68 F= -.45221019E+03 E0= -.45219312E+03  d E =-.307286E-02
       N       E                     dE             d eps       ncg     rms          rms(c)
DAV:   1    -0.452210123703E+03    0.64129E-04   -0.67075E-02  2808   0.478E-01    0.407E-02
RMM:   2    -0.452210241493E+03   -0.11779E-03   -0.14203E-03  1930   0.644E-02    0.257E-02
RMM:   3    -0.452210253077E+03   -0.11584E-04   -0.16804E-04  1355   0.206E-02
  69 F= -.45221025E+03 E0= -.45219319E+03  d E =-.313757E-02
       N       E                     dE             d eps       ncg     rms          rms(c)
DAV:   1    -0.452210163702E+03    0.77790E-04   -0.14006E+00  2688   0.204E+00    0.179E-01
RMM:   2    -0.452212955418E+03   -0.27917E-02   -0.30720E-02  2366   0.282E-01    0.916E-02
RMM:   3    -0.452213113334E+03   -0.15792E-03   -0.24615E-03  2099   0.865E-02    0.533E-02
RMM:   4    -0.452213151291E+03   -0.37957E-04   -0.52739E-04  1591   0.339E-02
  70 F= -.45221315E+03 E0= -.45219609E+03  d E =-.289821E-02
       N       E                     dE             d eps       ncg     rms          rms(c)
DAV:   1    -0.452186396858E+03    0.26716E-01   -0.12559E+01  2688   0.609E+00    0.564E-01
RMM:   2    -0.452212040110E+03   -0.25643E-01   -0.28984E-01  2655   0.850E-01    0.253E-01
RMM:   3    -0.452213533602E+03   -0.14935E-02   -0.23852E-02  2448   0.262E-01    0.161E-01
RMM:   4    -0.452213683175E+03   -0.14957E-03   -0.46826E-03  2496   0.100E-01    0.121E-01
RMM:   5    -0.452213852116E+03   -0.16894E-03   -0.26945E-03  2273   0.691E-02    0.505E-02
RMM:   6    -0.452213969324E+03   -0.11721E-03   -0.83754E-04  1679   0.311E-02    0.330E-02
RMM:   7    -0.452214112820E+03   -0.14350E-03   -0.58569E-04  1638   0.274E-02    0.288E-02
RMM:   8    -0.452214159188E+03   -0.46368E-04   -0.29364E-04  1217   0.158E-02
  71 F= -.45221416E+03 E0= -.45219710E+03  d E =-.390611E-02
       N       E                     dE             d eps       ncg     rms          rms(c)
DAV:   1    -0.452213626311E+03    0.48651E-03   -0.72916E-01  2864   0.147E+00    0.138E-01
RMM:   2    -0.452215050281E+03   -0.14240E-02   -0.15362E-02  2276   0.204E-01    0.683E-02
RMM:   3    -0.452215128287E+03   -0.78006E-04   -0.11044E-03  1837   0.616E-02    0.354E-02
RMM:   4    -0.452215150284E+03   -0.21997E-04   -0.20825E-04  1325   0.247E-02
  72 F= -.45221515E+03 E0= -.45219809E+03  d E =-.489721E-02
       N       E                     dE             d eps       ncg     rms          rms(c)
DAV:   1    -0.452211208852E+03    0.39194E-02   -0.18066E+00  2752   0.232E+00    0.203E-01
RMM:   2    -0.452214819597E+03   -0.36107E-02   -0.39432E-02  2417   0.320E-01    0.114E-01
RMM:   3    -0.452215026925E+03   -0.20733E-03   -0.31541E-03  2163   0.982E-02    0.595E-02
RMM:   4    -0.452215069192E+03   -0.42267E-04   -0.63362E-04  1717   0.383E-02
  73 F= -.45221507E+03 E0= -.45219800E+03  d E =-.481612E-02
       N       E                     dE             d eps       ncg     rms          rms(c)
DAV:   1    -0.452216187709E+03   -0.11608E-02   -0.86826E-01  2720   0.147E+00    0.153E-01
RMM:   2    -0.452218080504E+03   -0.18928E-02   -0.20911E-02  2422   0.228E-01    0.744E-02
RMM:   3    -0.452218183001E+03   -0.10250E-03   -0.16234E-03  2024   0.709E-02    0.465E-02
RMM:   4    -0.452218192188E+03   -0.91871E-05   -0.32670E-04  1553   0.302E-02
  74 F= -.45221819E+03 E0= -.45220113E+03  d E =-.312300E-02
       N       E                     dE             d eps       ncg     rms          rms(c)
DAV:   1    -0.452216416725E+03    0.17663E-02   -0.85311E-01  2736   0.146E+00    0.156E-01
RMM:   2    -0.452218289985E+03   -0.18733E-02   -0.21358E-02  2411   0.224E-01    0.821E-02
RMM:   3    -0.452218449588E+03   -0.15960E-03   -0.19802E-03  2114   0.718E-02    0.522E-02
RMM:   4    -0.452218480363E+03   -0.30775E-04   -0.42136E-04  1602   0.299E-02
  75 F= -.45221848E+03 E0= -.45220142E+03  d E =-.341117E-02
       N       E                     dE             d eps       ncg     rms          rms(c)
DAV:   1    -0.452217078122E+03    0.13715E-02   -0.84023E-01  2688   0.135E+00    0.149E-01
RMM:   2    -0.452218896226E+03   -0.18181E-02   -0.20593E-02  2268   0.199E-01    0.663E-02
RMM:   3    -0.452219080745E+03   -0.18452E-03   -0.19272E-03  1915   0.636E-02    0.418E-02
RMM:   4    -0.452219126153E+03   -0.45408E-04   -0.39426E-04  1349   0.260E-02
  76 F= -.45221913E+03 E0= -.45220206E+03  d E =-.645790E-03
       N       E                     dE             d eps       ncg     rms          rms(c)
DAV:   1    -0.452210318188E+03    0.87626E-02   -0.33165E+00  2688   0.269E+00    0.293E-01
RMM:   2    -0.452217461593E+03   -0.71434E-02   -0.80417E-02  2513   0.398E-01    0.131E-01
RMM:   3    -0.452218102716E+03   -0.64112E-03   -0.73064E-03  2323   0.127E-01    0.818E-02
RMM:   4    -0.452218213123E+03   -0.11041E-03   -0.13862E-03  1879   0.483E-02    0.611E-02
RMM:   5    -0.452218355326E+03   -0.14220E-03   -0.81615E-04  1688   0.332E-02    0.237E-02
RMM:   6    -0.452218420885E+03   -0.65559E-04   -0.37417E-04  1285   0.182E-02
  77 F= -.45221842E+03 E0= -.45220136E+03  d E =0.594782E-04
       N       E                     dE             d eps       ncg     rms          rms(c)
DAV:   1    -0.452217494754E+03    0.86057E-03   -0.10967E+00  2792   0.145E+00    0.156E-01
RMM:   2    -0.452220056007E+03   -0.25613E-02   -0.27869E-02  2383   0.222E-01    0.738E-02
RMM:   3    -0.452220301005E+03   -0.24500E-03   -0.26346E-03  2004   0.714E-02    0.510E-02
RMM:   4    -0.452220356392E+03   -0.55387E-04   -0.59648E-04  1524   0.301E-02
  78 F= -.45222036E+03 E0= -.45220329E+03  d E =-.193551E-02
       N       E                     dE             d eps       ncg     rms          rms(c)
DAV:   1    -0.452216762616E+03    0.35384E-02   -0.14146E+00  2704   0.166E+00    0.188E-01
RMM:   2    -0.452219913473E+03   -0.31509E-02   -0.35516E-02  2431   0.252E-01    0.894E-02
RMM:   3    -0.452220243016E+03   -0.32954E-03   -0.35265E-03  2136   0.815E-02    0.589E-02
RMM:   4    -0.452220299219E+03   -0.56203E-04   -0.69375E-04  1606   0.333E-02
  79 F= -.45222030E+03 E0= -.45220324E+03  d E =-.187833E-02
       N       E                     dE             d eps       ncg     rms          rms(c)
DAV:   1    -0.452220430490E+03   -0.18747E-03   -0.36679E-01  2864   0.109E+00    0.107E-01
RMM:   2    -0.452221312933E+03   -0.88244E-03   -0.92936E-03  2308   0.164E-01    0.477E-02
RMM:   3    -0.452221398291E+03   -0.85358E-04   -0.81357E-04  1809   0.501E-02
  80 F= -.45222140E+03 E0= -.45220434E+03  d E =-.109907E-02
       N       E                     dE             d eps       ncg     rms          rms(c)
DAV:   1    -0.452221308317E+03    0.46157E-05   -0.85543E-02  2856   0.525E-01    0.457E-02
RMM:   2    -0.452221551248E+03   -0.24293E-03   -0.21964E-03  1979   0.785E-02    0.309E-02
RMM:   3    -0.452221584218E+03   -0.32969E-04   -0.20801E-04  1365   0.253E-02
  81 F= -.45222158E+03 E0= -.45220452E+03  d E =-.128500E-02
       N       E                     dE             d eps       ncg     rms          rms(c)
DAV:   1    -0.452222113717E+03   -0.56247E-03   -0.15286E-01  2768   0.709E-01    0.662E-02
RMM:   2    -0.452222478227E+03   -0.36451E-03   -0.37278E-03  2177   0.108E-01    0.490E-02
RMM:   3    -0.452222512140E+03   -0.33913E-04   -0.32312E-04  1583   0.336E-02
  82 F= -.45222251E+03 E0= -.45220545E+03  d E =-.927922E-03
       N       E                     dE             d eps       ncg     rms          rms(c)
DAV:   1    -0.452222187426E+03    0.29080E-03   -0.33627E-01  2768   0.105E+00    0.100E-01
RMM:   2    -0.452222949706E+03   -0.76228E-03   -0.80891E-03  2318   0.159E-01    0.794E-02
RMM:   3    -0.452223002982E+03   -0.53276E-04   -0.69192E-04  1852   0.497E-02
  83 F= -.45222300E+03 E0= -.45220594E+03  d E =-.141876E-02
       N       E                     dE             d eps       ncg     rms          rms(c)
DAV:   1    -0.452223185878E+03   -0.23617E-03   -0.14175E-01  2784   0.574E-01    0.735E-02
RMM:   2    -0.452223583760E+03   -0.39788E-03   -0.39260E-03  2230   0.990E-02    0.720E-02
RMM:   3    -0.452223633717E+03   -0.49958E-04   -0.40006E-04  1612   0.330E-02
  84 F= -.45222363E+03 E0= -.45220657E+03  d E =-.630735E-03
       N       E                     dE             d eps       ncg     rms          rms(c)
DAV:   1    -0.452223553146E+03    0.30613E-04   -0.40239E-02  2872   0.307E-01    0.526E-02
RMM:   2    -0.452223695760E+03   -0.14261E-03   -0.11611E-03  1766   0.517E-02    0.506E-02
RMM:   3    -0.452223724464E+03   -0.28704E-04   -0.13262E-04  1311   0.190E-02
  85 F= -.45222372E+03 E0= -.45220666E+03  d E =-.721482E-03
       N       E                     dE             d eps       ncg     rms          rms(c)
DAV:   1    -0.452223653762E+03    0.41998E-04   -0.10675E-01  2768   0.460E-01    0.624E-02
RMM:   2    -0.452223948548E+03   -0.29479E-03   -0.28331E-03  1982   0.781E-02    0.556E-02
RMM:   3    -0.452223992778E+03   -0.44230E-04   -0.28419E-04  1446   0.262E-02
  86 F= -.45222399E+03 E0= -.45220693E+03  d E =-.268313E-03
       N       E                     dE             d eps       ncg     rms          rms(c)
DAV:   1    -0.452224001973E+03   -0.53426E-04   -0.46588E-03  2712   0.973E-02    0.279E-02
RMM:   2    -0.452224042251E+03   -0.40278E-04   -0.15598E-04  1355   0.176E-02
  87 F= -.45222404E+03 E0= -.45220698E+03  d E =-.317787E-03
       N       E                     dE             d eps       ncg     rms          rms(c)
DAV:   1    -0.452224142242E+03   -0.14027E-03   -0.57928E-02  2736   0.406E-01    0.359E-02
RMM:   2    -0.452224285816E+03   -0.14357E-03   -0.13639E-03  1824   0.596E-02    0.228E-02
RMM:   3    -0.452224304847E+03   -0.19031E-04   -0.12341E-04  1306   0.188E-02
  88 F= -.45222430E+03 E0= -.45220724E+03  d E =-.262596E-03
       N       E                     dE             d eps       ncg     rms          rms(c)
DAV:   1    -0.452224262919E+03    0.22897E-04   -0.35426E-02  2656   0.318E-01    0.279E-02
RMM:   2    -0.452224353952E+03   -0.91033E-04   -0.83353E-04  1688   0.466E-02
  89 F= -.45222435E+03 E0= -.45220729E+03  d E =-.311701E-03
       N       E                     dE             d eps       ncg     rms          rms(c)
DAV:   1    -0.452224358958E+03   -0.96039E-04   -0.67260E-03  2624   0.138E-01    0.217E-02
RMM:   2    -0.452224375861E+03   -0.16902E-04   -0.15138E-04  1404   0.213E-02
  90 F= -.45222438E+03 E0= -.45220731E+03  d E =-.333610E-03
       N       E                     dE             d eps       ncg     rms          rms(c)
DAV:   1    -0.452224383337E+03   -0.24379E-04   -0.19433E-03  2704   0.757E-02    0.776E-03
RMM:   2    -0.452224391487E+03   -0.81495E-05   -0.46195E-05  1139   0.115E-02
  91 F= -.45222439E+03 E0= -.45220733E+03  d E =-.349236E-03
       N       E                     dE             d eps       ncg     rms          rms(c)
DAV:   1    -0.452224414667E+03   -0.31330E-04   -0.94271E-02  2736   0.565E-01    0.395E-02
RMM:   2    -0.452224591788E+03   -0.17712E-03   -0.18378E-03  1919   0.734E-02    0.208E-02
RMM:   3    -0.452224604040E+03   -0.12252E-04   -0.16176E-04  1294   0.219E-02
  92 F= -.45222460E+03 E0= -.45220754E+03  d E =-.212553E-03
       N       E                     dE             d eps       ncg     rms          rms(c)
DAV:   1    -0.452224138784E+03    0.45300E-03   -0.30234E-01  2704   0.101E+00    0.688E-02
RMM:   2    -0.452224691413E+03   -0.55263E-03   -0.58661E-03  2150   0.131E-01    0.410E-02
RMM:   3    -0.452224715396E+03   -0.23984E-04   -0.46391E-04  1606   0.394E-02
  93 F= -.45222472E+03 E0= -.45220765E+03  d E =-.323909E-03
       N       E                     dE             d eps       ncg     rms          rms(c)
DAV:   1    -0.452224727002E+03   -0.35590E-04   -0.53626E-02  2712   0.424E-01    0.263E-02
RMM:   2    -0.452224824650E+03   -0.97648E-04   -0.10240E-03  1745   0.535E-02    0.236E-02
RMM:   3    -0.452224829491E+03   -0.48408E-05   -0.95511E-05  1203   0.168E-02
  94 F= -.45222483E+03 E0= -.45220777E+03  d E =-.114095E-03
       N       E                     dE             d eps       ncg     rms          rms(c)
DAV:   1    -0.452224025907E+03    0.79874E-03   -0.48829E-01  2688   0.128E+00    0.827E-02
RMM:   2    -0.452224880411E+03   -0.85450E-03   -0.92084E-03  2180   0.159E-01    0.490E-02
RMM:   3    -0.452224912023E+03   -0.31612E-04   -0.70056E-04  1693   0.473E-02
  95 F= -.45222491E+03 E0= -.45220785E+03  d E =-.196627E-03
       N       E                     dE             d eps       ncg     rms          rms(c)
DAV:   1    -0.452224918381E+03   -0.37970E-04   -0.10051E-02  2648   0.182E-01    0.318E-02
RMM:   2    -0.452224932629E+03   -0.14248E-04   -0.20456E-04  1402   0.246E-02
  96 F= -.45222493E+03 E0= -.45220787E+03  d E =-.217233E-03
       N       E                     dE             d eps       ncg     rms          rms(c)
DAV:   1    -0.452224927082E+03   -0.87005E-05   -0.47124E-03  2656   0.126E-01    0.871E-03
RMM:   2    -0.452224937160E+03   -0.10079E-04   -0.79821E-05  1106   0.151E-02
  97 F= -.45222494E+03 E0= -.45220787E+03  d E =-.221764E-03
       N       E                     dE             d eps       ncg     rms          rms(c)
DAV:   1    -0.452224941889E+03   -0.14807E-04   -0.12464E-03  2584   0.647E-02    0.674E-03
RMM:   2    -0.452224946346E+03   -0.44572E-05   -0.19799E-05   833   0.790E-03
  98 F= -.45222495E+03 E0= -.45220788E+03  d E =-.230950E-03
       N       E                     dE             d eps       ncg     rms          rms(c)
DAV:   1    -0.452224986949E+03   -0.45060E-04   -0.46903E-03  2656   0.133E-01    0.117E-02
RMM:   2    -0.452224999427E+03   -0.12478E-04   -0.11273E-04  1416   0.206E-02
  99 F= -.45222500E+03 E0= -.45220794E+03  d E =-.530808E-04
