  72  72   0   0
  0.2397444E+02  0.9614902E-09  0.8326749E-09  0.2156059E-08  0.5000000E-15
  1.000000000000000E-004
  CAR 
 ni3al                                   
      7.43151098    -25.00604525  301     -4.17758568      1.00000000
    -25.006  0.0000E+00  0.0000E+00
    -24.898  0.0000E+00  0.0000E+00
    -24.790  0.0000E+00  0.0000E+00
    -24.682  0.0000E+00  0.0000E+00
    -24.574  0.0000E+00  0.0000E+00
    -24.465  0.0000E+00  0.0000E+00
    -24.357  0.0000E+00  0.0000E+00
    -24.249  0.0000E+00  0.0000E+00
    -24.141  0.0000E+00  0.0000E+00
    -24.033  0.3463E-14  0.3744E-15
    -23.925  0.6965E-10  0.7531E-11
    -23.817  0.1469E-06  0.1589E-07
    -23.709  0.3576E-04  0.3882E-05
    -23.600  0.1275E-02  0.1417E-03
    -23.492  0.9806E-02  0.1202E-02
    -23.384  0.2197E-01  0.3578E-02
    -23.276  0.2154E-01  0.5907E-02
    -23.168  0.2887E-01  0.9028E-02
    -23.060  0.2542E-01  0.1178E-01
    -22.952  0.2648E-01  0.1464E-01
    -22.844  0.3197E-01  0.1810E-01
    -22.735  0.3763E-01  0.2217E-01
    -22.627  0.3725E-01  0.2619E-01
    -22.519  0.4555E-01  0.3112E-01
    -22.411  0.7303E-01  0.3901E-01
    -22.303  0.9042E-01  0.4879E-01
    -22.195  0.4327E-01  0.5347E-01
    -22.087  0.2637E-01  0.5632E-01
    -21.979  0.6736E-01  0.6360E-01
    -21.870  0.7794E-01  0.7203E-01
    -21.762  0.9665E-01  0.8248E-01
    -21.654  0.1272E+00  0.9624E-01
    -21.546  0.1628E+00  0.1138E+00
    -21.438  0.1622E+00  0.1314E+00
    -21.330  0.1424E+00  0.1468E+00
    -21.222  0.1635E+00  0.1644E+00
    -21.114  0.1524E+00  0.1809E+00
    -21.005  0.4953E-01  0.1863E+00
    -20.897  0.8275E-02  0.1872E+00
    -20.789  0.2514E-01  0.1899E+00
    -20.681  0.6521E-01  0.1969E+00
    -20.573  0.1187E+00  0.2098E+00
    -20.465  0.1236E+00  0.2231E+00
    -20.357  0.8656E-01  0.2325E+00
    -20.249  0.5902E-01  0.2389E+00
    -20.140  0.1706E+00  0.2573E+00
    -20.032  0.1988E+00  0.2788E+00
    -19.924  0.1471E+00  0.2947E+00
    -19.816  0.1634E+00  0.3124E+00
    -19.708  0.6452E-01  0.3194E+00
    -19.600  0.5633E-02  0.3200E+00
    -19.492  0.8402E-04  0.3200E+00
    -19.384  0.1724E-06  0.3200E+00
    -19.275  0.4227E-10  0.3200E+00
    -19.167  0.1143E-14  0.3200E+00
    -19.059  0.0000E+00  0.3200E+00
    -18.951  0.0000E+00  0.3200E+00
    -18.843  0.0000E+00  0.3200E+00
    -18.735  0.0000E+00  0.3200E+00
    -18.627  0.0000E+00  0.3200E+00
    -18.519  0.0000E+00  0.3200E+00
    -18.410  0.0000E+00  0.3200E+00
    -18.302  0.0000E+00  0.3200E+00
    -18.194  0.0000E+00  0.3200E+00
    -18.086  0.0000E+00  0.3200E+00
    -17.978  0.0000E+00  0.3200E+00
    -17.870  0.0000E+00  0.3200E+00
    -17.762  0.0000E+00  0.3200E+00
    -17.654  0.0000E+00  0.3200E+00
    -17.545  0.0000E+00  0.3200E+00
    -17.437  0.0000E+00  0.3200E+00
    -17.329  0.0000E+00  0.3200E+00
    -17.221  0.0000E+00  0.3200E+00
    -17.113  0.0000E+00  0.3200E+00
    -17.005  0.0000E+00  0.3200E+00
    -16.897  0.0000E+00  0.3200E+00
    -16.789  0.0000E+00  0.3200E+00
    -16.680  0.0000E+00  0.3200E+00
    -16.572  0.0000E+00  0.3200E+00
    -16.464  0.0000E+00  0.3200E+00
    -16.356  0.0000E+00  0.3200E+00
    -16.248  0.0000E+00  0.3200E+00
    -16.140  0.0000E+00  0.3200E+00
    -16.032  0.0000E+00  0.3200E+00
    -15.924  0.0000E+00  0.3200E+00
    -15.815  0.0000E+00  0.3200E+00
    -15.707  0.0000E+00  0.3200E+00
    -15.599  0.0000E+00  0.3200E+00
    -15.491  0.0000E+00  0.3200E+00
    -15.383  0.0000E+00  0.3200E+00
    -15.275  0.0000E+00  0.3200E+00
    -15.167  0.0000E+00  0.3200E+00
    -15.059  0.0000E+00  0.3200E+00
    -14.950  0.0000E+00  0.3200E+00
    -14.842  0.0000E+00  0.3200E+00
    -14.734  0.0000E+00  0.3200E+00
    -14.626  0.0000E+00  0.3200E+00
    -14.518  0.0000E+00  0.3200E+00
    -14.410  0.0000E+00  0.3200E+00
    -14.302  0.0000E+00  0.3200E+00
    -14.194  0.0000E+00  0.3200E+00
    -14.085  0.0000E+00  0.3200E+00
    -13.977  0.0000E+00  0.3200E+00
    -13.869  0.0000E+00  0.3200E+00
    -13.761  0.0000E+00  0.3200E+00
    -13.653  0.0000E+00  0.3200E+00
    -13.545  0.0000E+00  0.3200E+00
    -13.437  0.0000E+00  0.3200E+00
    -13.329  0.0000E+00  0.3200E+00
    -13.220  0.0000E+00  0.3200E+00
    -13.112  0.0000E+00  0.3200E+00
    -13.004  0.0000E+00  0.3200E+00
    -12.896  0.0000E+00  0.3200E+00
    -12.788  0.0000E+00  0.3200E+00
    -12.680  0.0000E+00  0.3200E+00
    -12.572  0.0000E+00  0.3200E+00
    -12.464  0.0000E+00  0.3200E+00
    -12.355  0.0000E+00  0.3200E+00
    -12.247  0.0000E+00  0.3200E+00
    -12.139  0.0000E+00  0.3200E+00
    -12.031  0.0000E+00  0.3200E+00
    -11.923  0.0000E+00  0.3200E+00
    -11.815  0.0000E+00  0.3200E+00
    -11.707  0.0000E+00  0.3200E+00
    -11.599  0.0000E+00  0.3200E+00
    -11.490  0.0000E+00  0.3200E+00
    -11.382  0.4629E-14  0.3200E+00
    -11.274  0.1104E-09  0.3200E+00
    -11.166  0.2750E-06  0.3200E+00
    -11.058  0.7647E-04  0.3200E+00
    -10.950  0.2820E-02  0.3203E+00
    -10.842  0.2071E-01  0.3226E+00
    -10.734  0.5316E-01  0.3283E+00
    -10.625  0.8312E-01  0.3373E+00
    -10.517  0.9458E-01  0.3475E+00
    -10.409  0.6628E-01  0.3547E+00
    -10.301  0.6732E-01  0.3620E+00
    -10.193  0.9846E-01  0.3726E+00
    -10.085  0.1199E+00  0.3856E+00
     -9.977  0.1042E+00  0.3968E+00
     -9.869  0.8187E-01  0.4057E+00
     -9.760  0.7169E-01  0.4134E+00
     -9.652  0.6193E-01  0.4201E+00
     -9.544  0.5158E-01  0.4257E+00
     -9.436  0.4053E-01  0.4301E+00
     -9.328  0.4713E-01  0.4352E+00
     -9.220  0.6628E-01  0.4424E+00
     -9.112  0.9157E-01  0.4523E+00
     -9.004  0.8466E-01  0.4614E+00
     -8.895  0.9989E-01  0.4722E+00
     -8.787  0.1114E+00  0.4843E+00
     -8.679  0.7813E-01  0.4927E+00
     -8.571  0.6487E-01  0.4997E+00
     -8.463  0.8453E-01  0.5089E+00
     -8.355  0.1025E+00  0.5200E+00
     -8.247  0.1092E+00  0.5318E+00
     -8.139  0.1056E+00  0.5432E+00
     -8.030  0.1089E+00  0.5549E+00
     -7.922  0.9363E-01  0.5651E+00
     -7.814  0.1004E+00  0.5759E+00
     -7.706  0.1570E+00  0.5929E+00
     -7.598  0.1513E+00  0.6093E+00
     -7.490  0.1286E+00  0.6232E+00
     -7.382  0.1417E+00  0.6385E+00
     -7.274  0.1237E+00  0.6518E+00
     -7.165  0.1311E+00  0.6660E+00
     -7.057  0.1009E+00  0.6769E+00
     -6.949  0.1052E+00  0.6883E+00
     -6.841  0.1130E+00  0.7005E+00
     -6.733  0.1367E+00  0.7153E+00
     -6.625  0.1508E+00  0.7316E+00
     -6.517  0.1454E+00  0.7474E+00
     -6.409  0.1147E+00  0.7597E+00
     -6.300  0.1639E+00  0.7775E+00
     -6.192  0.1988E+00  0.7990E+00
     -6.084  0.1888E+00  0.8194E+00
     -5.976  0.1957E+00  0.8405E+00
     -5.868  0.2086E+00  0.8631E+00
     -5.760  0.2024E+00  0.8850E+00
     -5.652  0.1482E+00  0.9010E+00
     -5.544  0.1460E+00  0.9168E+00
     -5.435  0.2186E+00  0.9404E+00
     -5.327  0.2116E+00  0.9633E+00
     -5.219  0.1342E+00  0.9778E+00
     -5.111  0.1326E+00  0.9922E+00
     -5.003  0.1900E+00  0.1013E+01
     -4.895  0.2885E+00  0.1044E+01
     -4.787  0.2725E+00  0.1073E+01
     -4.679  0.2084E+00  0.1096E+01
     -4.570  0.2322E+00  0.1121E+01
     -4.462  0.2364E+00  0.1147E+01
     -4.354  0.1895E+00  0.1167E+01
     -4.246  0.1938E+00  0.1188E+01
     -4.138  0.1614E+00  0.1205E+01
     -4.030  0.1147E+00  0.1218E+01
     -3.922  0.1565E+00  0.1235E+01
     -3.814  0.1590E+00  0.1252E+01
     -3.705  0.1212E+00  0.1265E+01
     -3.597  0.9289E-01  0.1275E+01
     -3.489  0.4067E-01  0.1280E+01
     -3.381  0.4501E-02  0.1280E+01
     -3.273  0.8797E-04  0.1280E+01
     -3.165  0.2373E-06  0.1280E+01
     -3.057  0.7510E-10  0.1280E+01
     -2.949  0.2559E-14  0.1280E+01
     -2.840  0.0000E+00  0.1280E+01
     -2.732  0.0000E+00  0.1280E+01
     -2.624  0.0000E+00  0.1280E+01
     -2.516  0.0000E+00  0.1280E+01
     -2.408  0.0000E+00  0.1280E+01
     -2.300  0.0000E+00  0.1280E+01
     -2.192  0.0000E+00  0.1280E+01
     -2.084  0.0000E+00  0.1280E+01
     -1.975  0.0000E+00  0.1280E+01
     -1.867  0.0000E+00  0.1280E+01
     -1.759  0.0000E+00  0.1280E+01
     -1.651  0.0000E+00  0.1280E+01
     -1.543  0.0000E+00  0.1280E+01
     -1.435  0.0000E+00  0.1280E+01
     -1.327  0.0000E+00  0.1280E+01
     -1.219  0.0000E+00  0.1280E+01
     -1.110  0.0000E+00  0.1280E+01
     -1.002  0.0000E+00  0.1280E+01
     -0.894  0.0000E+00  0.1280E+01
     -0.786  0.0000E+00  0.1280E+01
     -0.678  0.0000E+00  0.1280E+01
     -0.570  0.0000E+00  0.1280E+01
     -0.462  0.0000E+00  0.1280E+01
     -0.354  0.0000E+00  0.1280E+01
     -0.245  0.0000E+00  0.1280E+01
     -0.137  0.0000E+00  0.1280E+01
     -0.029  0.0000E+00  0.1280E+01
      0.079  0.0000E+00  0.1280E+01
      0.187  0.0000E+00  0.1280E+01
      0.295  0.0000E+00  0.1280E+01
      0.403  0.0000E+00  0.1280E+01
      0.511  0.0000E+00  0.1280E+01
      0.620  0.0000E+00  0.1280E+01
      0.728  0.0000E+00  0.1280E+01
      0.836  0.0000E+00  0.1280E+01
      0.944  0.0000E+00  0.1280E+01
      1.052  0.0000E+00  0.1280E+01
      1.160  0.1997E-16  0.1280E+01
      1.268  0.1109E-11  0.1280E+01
      1.377  0.6270E-08  0.1280E+01
      1.485  0.3727E-05  0.1280E+01
      1.593  0.2480E-03  0.1280E+01
      1.701  0.2061E-02  0.1280E+01
      1.809  0.2455E-02  0.1281E+01
      1.917  0.1802E-02  0.1281E+01
      2.025  0.7399E-02  0.1282E+01
      2.133  0.8984E-02  0.1282E+01
      2.242  0.4639E-02  0.1283E+01
      2.350  0.1035E-01  0.1284E+01
      2.458  0.7521E-02  0.1285E+01
      2.566  0.1076E-02  0.1285E+01
      2.674  0.3414E-02  0.1285E+01
      2.782  0.5673E-02  0.1286E+01
      2.890  0.7793E-02  0.1287E+01
      2.998  0.1768E-01  0.1289E+01
      3.107  0.1285E-01  0.1290E+01
      3.215  0.1123E-01  0.1291E+01
      3.323  0.3422E-02  0.1292E+01
      3.431  0.3393E-02  0.1292E+01
      3.539  0.1055E-01  0.1293E+01
      3.647  0.2972E-01  0.1296E+01
      3.755  0.2762E-01  0.1299E+01
      3.863  0.1693E-01  0.1301E+01
      3.972  0.2054E-01  0.1304E+01
      4.080  0.2382E-01  0.1306E+01
      4.188  0.1900E-01  0.1308E+01
      4.296  0.1769E-01  0.1310E+01
      4.404  0.4763E-01  0.1315E+01
      4.512  0.5449E-01  0.1321E+01
      4.620  0.5842E-01  0.1327E+01
      4.728  0.6540E-01  0.1334E+01
      4.837  0.7543E-01  0.1343E+01
      4.945  0.8235E-01  0.1352E+01
      5.053  0.1120E+00  0.1364E+01
      5.161  0.1137E+00  0.1376E+01
      5.269  0.1073E+00  0.1388E+01
      5.377  0.9736E-01  0.1398E+01
      5.485  0.1062E+00  0.1410E+01
      5.593  0.1038E+00  0.1421E+01
      5.702  0.8086E-01  0.1430E+01
      5.810  0.7288E-01  0.1437E+01
      5.918  0.5934E-01  0.1444E+01
      6.026  0.2390E-01  0.1446E+01
      6.134  0.2473E-02  0.1447E+01
      6.242  0.5160E-04  0.1447E+01
      6.350  0.1732E-06  0.1447E+01
      6.458  0.7445E-10  0.1447E+01
      6.567  0.3552E-14  0.1447E+01
      6.675  0.0000E+00  0.1447E+01
      6.783  0.0000E+00  0.1447E+01
      6.891  0.0000E+00  0.1447E+01
      6.999  0.0000E+00  0.1447E+01
      7.107  0.0000E+00  0.1447E+01
      7.215  0.0000E+00  0.1447E+01
      7.323  0.0000E+00  0.1447E+01
      7.432  0.0000E+00  0.1447E+01
