   72   72  300    1
  0.2397444E+02  0.9614902E-09  0.8326749E-09  0.2156059E-08  0.5000000E-15
  1.000000000000000E-004
  CAR 
 ni3al                                   
    360      7    217
 
  0.0000000E+00  0.0000000E+00  0.0000000E+00  0.8333333E-01
      1        -23.531611   1.000000
      2        -22.834828   1.000000
      3        -22.834811   1.000000
      4        -22.734130   1.000000
      5        -22.637511   1.000000
      6        -22.505834   1.000000
      7        -22.279562   1.000000
      8        -22.279479   1.000000
      9        -22.049667   1.000000
     10        -22.049633   1.000000
     11        -21.936824   1.000000
     12        -21.836187   1.000000
     13        -21.772816   1.000000
     14        -21.772792   1.000000
     15        -21.713632   1.000000
     16        -21.606689   1.000000
     17        -21.511902   1.000000
     18        -21.511888   1.000000
     19        -21.397280   1.000000
     20        -21.393675   1.000000
     21        -21.368348   1.000000
     22        -21.362427   1.000000
     23        -21.362416   1.000000
     24        -21.265478   1.000000
     25        -21.265418   1.000000
     26        -21.187117   1.000000
     27        -21.106723   1.000000
     28        -21.105547   1.000000
     29        -20.861226   1.000000
     30        -20.632823   1.000000
     31        -20.602843   1.000000
     32        -20.602807   1.000000
     33        -20.487943   1.000000
     34        -20.487290   1.000000
     35        -20.470234   1.000000
     36        -20.162144   1.000000
     37        -20.162075   1.000000
     38        -20.147404   1.000000
     39        -20.138261   1.000000
     40        -20.122387   1.000000
     41        -20.114610   1.000000
     42        -20.078337   1.000000
     43        -20.077881   1.000000
     44        -19.929316   1.000000
     45        -19.928343   1.000000
     46        -19.887926   1.000000
     47        -19.798174   1.000000
     48        -19.797353   1.000000
     49        -10.872957   1.000000
     50        -10.630001   1.000000
     51        -10.538922   1.000000
     52        -10.438687   1.000000
     53        -10.438654   1.000000
     54        -10.375553   1.000000
     55        -10.315793   1.000000
     56        -10.315769   1.000000
     57        -10.035202   1.000000
     58        -10.035169   1.000000
     59         -9.993221   1.000000
     60         -9.892932   1.000000
     61         -9.851221   1.000000
     62         -9.851174   1.000000
     63         -9.683825   1.000000
     64         -9.682168   1.000000
     65         -9.452883   1.000000
     66         -9.285116   1.000000
     67         -9.234416   1.000000
     68         -9.221016   1.000000
     69         -9.220953   1.000000
     70         -8.881292   1.000000
     71         -8.880830   1.000000
     72         -8.853879   1.000000
     73         -8.853839   1.000000
     74         -8.695019   1.000000
     75         -8.564107   1.000000
     76         -8.544579   1.000000
     77         -8.544492   1.000000
     78         -8.496916   1.000000
     79         -8.415129   1.000000
     80         -8.377853   1.000000
     81         -8.377727   1.000000
     82         -8.203048   1.000000
     83         -8.031131   1.000000
     84         -8.030982   1.000000
     85         -7.799781   1.000000
     86         -7.799712   1.000000
     87         -7.769973   1.000000
     88         -7.733867   1.000000
     89         -7.663980   1.000000
     90         -7.660043   1.000000
     91         -7.659960   1.000000
     92         -7.658427   1.000000
     93         -7.615282   1.000000
     94         -7.607904   1.000000
     95         -7.419031   1.000000
     96         -7.418377   1.000000
     97         -7.418349   1.000000
     98         -7.314967   1.000000
     99         -7.312431   1.000000
    100         -7.214267   1.000000
    101         -7.214049   1.000000
    102         -7.120902   1.000000
    103         -6.983410   1.000000
    104         -6.983406   1.000000
    105         -6.945689   1.000000
    106         -6.829470   1.000000
    107         -6.810337   1.000000
    108         -6.771773   1.000000
    109         -6.771622   1.000000
    110         -6.625583   1.000000
    111         -6.616724   1.000000
    112         -6.616700   1.000000
    113         -6.346891   1.000000
    114         -6.346850   1.000000
    115         -6.306344   1.000000
    116         -6.301286   1.000000
    117         -6.262097   1.000000
    118         -6.222807   1.000000
    119         -6.157140   1.000000
    120         -6.157077   1.000000
    121         -6.074496   1.000000
    122         -6.073484   1.000000
    123         -6.073422   1.000000
    124         -5.972252   1.000000
    125         -5.969649   1.000000
    126         -5.969614   1.000000
    127         -5.969082   1.000000
    128         -5.941308   1.000000
    129         -5.916984   1.000000
    130         -5.916871   1.000000
    131         -5.801609   1.000000
    132         -5.762853   1.000000
    133         -5.762740   1.000000
    134         -5.762034   1.000000
    135         -5.761911   1.000000
    136         -5.609352   1.000000
    137         -5.529305   1.000000
    138         -5.529120   1.000000
    139         -5.454195   1.000000
    140         -5.454091   1.000000
    141         -5.425362   1.000000
    142         -5.378515   1.000000
    143         -5.378477   1.000000
    144         -5.376451   1.000000
    145         -5.334340   1.000000
    146         -5.333210   1.000000
    147         -5.330756   1.000000
    148         -5.221146   1.000000
    149         -5.112870   1.000000
    150         -5.112700   1.000000
    151         -5.030526   1.000000
    152         -5.028618   1.000000
    153         -4.984616   1.000000
    154         -4.944475   1.000000
    155         -4.944287   1.000000
    156         -4.920593   1.000000
    157         -4.875344   1.000000
    158         -4.875260   1.000000
    159         -4.856923   1.000000
    160         -4.836193   1.000000
    161         -4.831597   1.000000
    162         -4.794655   1.000000
    163         -4.794363   1.000000
    164         -4.684799   1.000000
    165         -4.673612   1.000000
    166         -4.673377   1.000000
    167         -4.650831   1.000000
    168         -4.650514   1.000000
    169         -4.545113   1.000000
    170         -4.523015   0.999999
    171         -4.522470   0.999999
    172         -4.465562   0.999977
    173         -4.465372   0.999976
    174         -4.332023   0.985522
    175         -4.331537   0.985267
    176         -4.298807   0.956766
    177         -4.247358   0.838113
    178         -4.167699   0.444400
    179         -4.167444   0.442978
    180         -4.161947   0.412480
    181         -4.161388   0.409406
    182         -4.039656   0.025551
    183         -4.039563   0.025473
    184         -3.981814   0.002815
    185         -3.970727   0.001720
    186         -3.970617   0.001711
    187         -3.855100   0.000003
    188         -3.734186   0.000000
    189         -3.733490   0.000000
    190         -3.635703   0.000000
    191         -3.629983   0.000000
    192         -3.568143   0.000000
    193          1.709759   0.000000
    194          3.395298   0.000000
    195          3.851699   0.000000
    196          3.851707   0.000000
    197          4.349774   0.000000
    198          4.437532   0.000000
    199          4.592667   0.000000
    200          4.753828   0.000000
    201          4.764030   0.000000
    202          4.764044   0.000000
    203          4.845161   0.000000
    204          4.845186   0.000000
    205          4.873145   0.000000
    206          4.984764   0.000000
    207          5.031129   0.000000
    208          5.031200   0.000000
    209          5.209408   0.000000
    210          5.209458   0.000000
    211          5.325400   0.000000
    212          5.325453   0.000000
    213          5.384966   0.000000
    214          5.596410   0.000000
    215          5.616679   0.000000
    216          5.757810   0.000000
    217          5.957077   0.000000
 
  0.3333333E+00  0.0000000E+00  0.0000000E+00  0.1666667E+00
      1        -23.444939   1.000000
      2        -23.197604   1.000000
      3        -22.670385   1.000000
      4        -22.570360   1.000000
      5        -22.541628   1.000000
      6        -22.454527   1.000000
      7        -22.395572   1.000000
      8        -22.393180   1.000000
      9        -22.181711   1.000000
     10        -22.002432   1.000000
     11        -21.842166   1.000000
     12        -21.803475   1.000000
     13        -21.723853   1.000000
     14        -21.684072   1.000000
     15        -21.651977   1.000000
     16        -21.616725   1.000000
     17        -21.572702   1.000000
     18        -21.529700   1.000000
     19        -21.486054   1.000000
     20        -21.460159   1.000000
     21        -21.452577   1.000000
     22        -21.358344   1.000000
     23        -21.258083   1.000000
     24        -21.234422   1.000000
     25        -21.228252   1.000000
     26        -21.200577   1.000000
     27        -21.152988   1.000000
     28        -21.125149   1.000000
     29        -20.806003   1.000000
     30        -20.688247   1.000000
     31        -20.664652   1.000000
     32        -20.655206   1.000000
     33        -20.440467   1.000000
     34        -20.397756   1.000000
     35        -20.395021   1.000000
     36        -20.196399   1.000000
     37        -20.178995   1.000000
     38        -20.162205   1.000000
     39        -20.142457   1.000000
     40        -20.129040   1.000000
     41        -20.127813   1.000000
     42        -20.126418   1.000000
     43        -19.965843   1.000000
     44        -19.951903   1.000000
     45        -19.923884   1.000000
     46        -19.865976   1.000000
     47        -19.841091   1.000000
     48        -19.816228   1.000000
     49        -10.646607   1.000000
     50        -10.613064   1.000000
     51        -10.604935   1.000000
     52        -10.590290   1.000000
     53        -10.484648   1.000000
     54        -10.209608   1.000000
     55        -10.156601   1.000000
     56        -10.144893   1.000000
     57        -10.104838   1.000000
     58        -10.061518   1.000000
     59        -10.055814   1.000000
     60         -9.954199   1.000000
     61         -9.951970   1.000000
     62         -9.839553   1.000000
     63         -9.717714   1.000000
     64         -9.580738   1.000000
     65         -9.575936   1.000000
     66         -9.462882   1.000000
     67         -9.382410   1.000000
     68         -9.186100   1.000000
     69         -9.133844   1.000000
     70         -9.013160   1.000000
     71         -8.975612   1.000000
     72         -8.960273   1.000000
     73         -8.828215   1.000000
     74         -8.795176   1.000000
     75         -8.500805   1.000000
     76         -8.453334   1.000000
     77         -8.421783   1.000000
     78         -8.400272   1.000000
     79         -8.346551   1.000000
     80         -8.243441   1.000000
     81         -8.179905   1.000000
     82         -8.178946   1.000000
     83         -8.092580   1.000000
     84         -8.057389   1.000000
     85         -8.012283   1.000000
     86         -7.936772   1.000000
     87         -7.846249   1.000000
     88         -7.823722   1.000000
     89         -7.761079   1.000000
     90         -7.720682   1.000000
     91         -7.616322   1.000000
     92         -7.565194   1.000000
     93         -7.501053   1.000000
     94         -7.481558   1.000000
     95         -7.446086   1.000000
     96         -7.398507   1.000000
     97         -7.390489   1.000000
     98         -7.307063   1.000000
     99         -7.267646   1.000000
    100         -7.237105   1.000000
    101         -7.203918   1.000000
    102         -7.185742   1.000000
    103         -7.007552   1.000000
    104         -6.952510   1.000000
    105         -6.885226   1.000000
    106         -6.790152   1.000000
    107         -6.758254   1.000000
    108         -6.658496   1.000000
    109         -6.616777   1.000000
    110         -6.606449   1.000000
    111         -6.599240   1.000000
    112         -6.594901   1.000000
    113         -6.539722   1.000000
    114         -6.379289   1.000000
    115         -6.333176   1.000000
    116         -6.322558   1.000000
    117         -6.321852   1.000000
    118         -6.298247   1.000000
    119         -6.241168   1.000000
    120         -6.219185   1.000000
    121         -6.201784   1.000000
    122         -6.160212   1.000000
    123         -6.117335   1.000000
    124         -6.073888   1.000000
    125         -5.988512   1.000000
    126         -5.978035   1.000000
    127         -5.946848   1.000000
    128         -5.902735   1.000000
    129         -5.852328   1.000000
    130         -5.851715   1.000000
    131         -5.769307   1.000000
    132         -5.761043   1.000000
    133         -5.760246   1.000000
    134         -5.738261   1.000000
    135         -5.711496   1.000000
    136         -5.596005   1.000000
    137         -5.577293   1.000000
    138         -5.557807   1.000000
    139         -5.513115   1.000000
    140         -5.472833   1.000000
    141         -5.438274   1.000000
    142         -5.422726   1.000000
    143         -5.421604   1.000000
    144         -5.403442   1.000000
    145         -5.349846   1.000000
    146         -5.228917   1.000000
    147         -5.185082   1.000000
    148         -5.085001   1.000000
    149         -5.076361   1.000000
    150         -5.039445   1.000000
    151         -4.988564   1.000000
    152         -4.973611   1.000000
    153         -4.942734   1.000000
    154         -4.942464   1.000000
    155         -4.900004   1.000000
    156         -4.893113   1.000000
    157         -4.856520   1.000000
    158         -4.854711   1.000000
    159         -4.821388   1.000000
    160         -4.793506   1.000000
    161         -4.744816   1.000000
    162         -4.717034   1.000000
    163         -4.701943   1.000000
    164         -4.695399   1.000000
    165         -4.634521   1.000000
    166         -4.632272   1.000000
    167         -4.588602   1.000000
    168         -4.578716   1.000000
    169         -4.535179   1.000000
    170         -4.518030   0.999999
    171         -4.513670   0.999999
    172         -4.492450   0.999996
    173         -4.487657   0.999994
    174         -4.463204   0.999973
    175         -4.412704   0.999558
    176         -4.346906   0.991680
    177         -4.323378   0.980387
    178         -4.237669   0.802254
    179         -4.224228   0.745253
    180         -4.163192   0.419351
    181         -4.103857   0.148547
    182         -4.081575   0.087264
    183         -3.985408   0.003286
    184         -3.981324   0.002755
    185         -3.942326   0.000439
    186         -3.880789   0.000014
    187         -3.872517   0.000008
    188         -3.823646   0.000000
    189         -3.813704   0.000000
    190         -3.772720   0.000000
    191         -3.701966   0.000000
    192         -3.692635   0.000000
    193          2.084551   0.000000
    194          2.943851   0.000000
    195          3.700335   0.000000
    196          4.339901   0.000000
    197          4.378982   0.000000
    198          4.396775   0.000000
    199          4.430075   0.000000
    200          4.443867   0.000000
    201          4.574640   0.000000
    202          4.618982   0.000000
    203          4.953192   0.000000
    204          4.980027   0.000000
    205          4.980618   0.000000
    206          5.099183   0.000000
    207          5.130596   0.000000
    208          5.198657   0.000000
    209          5.228507   0.000000
    210          5.231332   0.000000
    211          5.416169   0.000000
    212          5.480182   0.000000
    213          5.506588   0.000000
    214          5.531843   0.000000
    215          5.707374   0.000000
    216          5.779114   0.000000
    217          5.875237   0.000000
 
  0.0000000E+00  0.2500000E+00  0.0000000E+00  0.1666667E+00
      1        -23.466401   1.000000
      2        -22.991604   1.000000
      3        -22.795371   1.000000
      4        -22.794757   1.000000
      5        -22.586714   1.000000
      6        -22.396251   1.000000
      7        -22.393197   1.000000
      8        -22.340884   1.000000
      9        -21.996148   1.000000
     10        -21.996040   1.000000
     11        -21.979448   1.000000
     12        -21.810443   1.000000
     13        -21.744739   1.000000
     14        -21.692940   1.000000
     15        -21.637841   1.000000
     16        -21.608549   1.000000
     17        -21.564292   1.000000
     18        -21.539144   1.000000
     19        -21.467514   1.000000
     20        -21.436295   1.000000
     21        -21.381311   1.000000
     22        -21.361932   1.000000
     23        -21.359908   1.000000
     24        -21.224755   1.000000
     25        -21.218804   1.000000
     26        -21.182449   1.000000
     27        -21.144750   1.000000
     28        -21.117351   1.000000
     29        -20.819227   1.000000
     30        -20.614452   1.000000
     31        -20.613686   1.000000
     32        -20.566445   1.000000
     33        -20.531696   1.000000
     34        -20.479866   1.000000
     35        -20.478963   1.000000
     36        -20.184615   1.000000
     37        -20.156904   1.000000
     38        -20.155314   1.000000
     39        -20.138366   1.000000
     40        -20.118724   1.000000
     41        -20.112782   1.000000
     42        -20.111146   1.000000
     43        -20.056582   1.000000
     44        -19.905843   1.000000
     45        -19.905065   1.000000
     46        -19.875069   1.000000
     47        -19.830846   1.000000
     48        -19.811407   1.000000
     49        -10.829745   1.000000
     50        -10.741919   1.000000
     51        -10.726239   1.000000
     52        -10.617602   1.000000
     53        -10.576232   1.000000
     54        -10.324040   1.000000
     55        -10.276709   1.000000
     56        -10.257053   1.000000
     57        -10.128092   1.000000
     58        -10.047265   1.000000
     59        -10.036613   1.000000
     60         -9.977232   1.000000
     61         -9.807660   1.000000
     62         -9.620750   1.000000
     63         -9.619930   1.000000
     64         -9.568768   1.000000
     65         -9.503485   1.000000
     66         -9.304528   1.000000
     67         -9.225635   1.000000
     68         -9.193249   1.000000
     69         -9.136405   1.000000
     70         -8.946610   1.000000
     71         -8.810504   1.000000
     72         -8.795364   1.000000
     73         -8.700776   1.000000
     74         -8.683443   1.000000
     75         -8.566948   1.000000
     76         -8.543348   1.000000
     77         -8.538492   1.000000
     78         -8.435066   1.000000
     79         -8.433068   1.000000
     80         -8.354437   1.000000
     81         -8.294285   1.000000
     82         -8.184495   1.000000
     83         -8.084008   1.000000
     84         -8.069932   1.000000
     85         -7.912005   1.000000
     86         -7.769658   1.000000
     87         -7.749923   1.000000
     88         -7.736451   1.000000
     89         -7.708067   1.000000
     90         -7.647127   1.000000
     91         -7.628307   1.000000
     92         -7.611527   1.000000
     93         -7.513827   1.000000
     94         -7.431980   1.000000
     95         -7.431931   1.000000
     96         -7.423147   1.000000
     97         -7.397801   1.000000
     98         -7.330471   1.000000
     99         -7.247498   1.000000
    100         -7.175488   1.000000
    101         -7.167548   1.000000
    102         -7.127521   1.000000
    103         -7.034371   1.000000
    104         -6.931447   1.000000
    105         -6.891716   1.000000
    106         -6.783800   1.000000
    107         -6.722623   1.000000
    108         -6.721698   1.000000
    109         -6.711471   1.000000
    110         -6.655547   1.000000
    111         -6.635991   1.000000
    112         -6.581445   1.000000
    113         -6.428353   1.000000
    114         -6.402745   1.000000
    115         -6.354088   1.000000
    116         -6.308616   1.000000
    117         -6.294034   1.000000
    118         -6.250587   1.000000
    119         -6.194625   1.000000
    120         -6.169729   1.000000
    121         -6.123315   1.000000
    122         -6.112426   1.000000
    123         -6.044651   1.000000
    124         -6.027601   1.000000
    125         -6.016862   1.000000
    126         -6.003516   1.000000
    127         -5.981539   1.000000
    128         -5.936093   1.000000
    129         -5.887001   1.000000
    130         -5.879178   1.000000
    131         -5.817620   1.000000
    132         -5.775763   1.000000
    133         -5.772870   1.000000
    134         -5.763522   1.000000
    135         -5.731469   1.000000
    136         -5.581186   1.000000
    137         -5.566101   1.000000
    138         -5.554586   1.000000
    139         -5.520117   1.000000
    140         -5.458082   1.000000
    141         -5.428249   1.000000
    142         -5.416159   1.000000
    143         -5.407005   1.000000
    144         -5.393702   1.000000
    145         -5.386837   1.000000
    146         -5.302688   1.000000
    147         -5.189255   1.000000
    148         -5.165685   1.000000
    149         -5.124715   1.000000
    150         -5.118888   1.000000
    151         -5.106254   1.000000
    152         -5.054219   1.000000
    153         -5.003214   1.000000
    154         -4.976327   1.000000
    155         -4.962073   1.000000
    156         -4.929959   1.000000
    157         -4.894078   1.000000
    158         -4.884294   1.000000
    159         -4.883629   1.000000
    160         -4.848684   1.000000
    161         -4.839119   1.000000
    162         -4.827762   1.000000
    163         -4.816808   1.000000
    164         -4.683439   1.000000
    165         -4.660821   1.000000
    166         -4.638607   1.000000
    167         -4.632443   1.000000
    168         -4.563534   1.000000
    169         -4.559400   1.000000
    170         -4.538324   1.000000
    171         -4.498125   0.999997
    172         -4.484676   0.999993
    173         -4.473183   0.999985
    174         -4.464233   0.999975
    175         -4.411048   0.999519
    176         -4.320458   0.978335
    177         -4.319989   0.977989
    178         -4.304161   0.963277
    179         -4.257824   0.871758
    180         -4.220751   0.729218
    181         -4.183934   0.535770
    182         -4.042363   0.027916
    183         -3.986167   0.003394
    184         -3.974293   0.002020
    185         -3.962506   0.001176
    186         -3.894800   0.000032
    187         -3.765271   0.000000
    188         -3.726978   0.000000
    189         -3.726347   0.000000
    190         -3.722197   0.000000
    191         -3.637627   0.000000
    192         -3.580711   0.000000
    193          1.996369   0.000000
    194          3.565025   0.000000
    195          3.628652   0.000000
    196          4.028154   0.000000
    197          4.029045   0.000000
    198          4.589916   0.000000
    199          4.603851   0.000000
    200          4.723381   0.000000
    201          4.780023   0.000000
    202          4.813403   0.000000
    203          4.877902   0.000000
    204          4.904807   0.000000
    205          4.993436   0.000000
    206          5.035750   0.000000
    207          5.044642   0.000000
    208          5.121308   0.000000
    209          5.204364   0.000000
    210          5.231300   0.000000
    211          5.420194   0.000000
    212          5.538089   0.000000
    213          5.546133   0.000000
    214          5.555817   0.000000
    215          5.805393   0.000000
    216          5.841805   0.000000
    217          5.907265   0.000000
 
  0.3333333E+00  0.2500000E+00  0.0000000E+00  0.1666667E+00
      1        -23.381271   1.000000
      2        -23.139463   1.000000
      3        -22.919714   1.000000
      4        -22.730601   1.000000
      5        -22.522501   1.000000
      6        -22.368569   1.000000
      7        -22.352101   1.000000
      8        -22.295715   1.000000
      9        -22.056752   1.000000
     10        -22.014890   1.000000
     11        -21.917301   1.000000
     12        -21.793266   1.000000
     13        -21.737080   1.000000
     14        -21.724632   1.000000
     15        -21.612416   1.000000
     16        -21.572337   1.000000
     17        -21.545968   1.000000
     18        -21.533089   1.000000
     19        -21.531392   1.000000
     20        -21.478741   1.000000
     21        -21.372249   1.000000
     22        -21.349516   1.000000
     23        -21.330875   1.000000
     24        -21.247121   1.000000
     25        -21.239801   1.000000
     26        -21.194198   1.000000
     27        -21.172237   1.000000
     28        -21.133967   1.000000
     29        -20.767885   1.000000
     30        -20.641313   1.000000
     31        -20.635143   1.000000
     32        -20.571580   1.000000
     33        -20.524357   1.000000
     34        -20.451041   1.000000
     35        -20.438530   1.000000
     36        -20.256324   1.000000
     37        -20.163954   1.000000
     38        -20.150055   1.000000
     39        -20.140829   1.000000
     40        -20.127652   1.000000
     41        -20.110773   1.000000
     42        -20.061526   1.000000
     43        -19.989308   1.000000
     44        -19.933654   1.000000
     45        -19.906995   1.000000
     46        -19.873558   1.000000
     47        -19.862825   1.000000
     48        -19.827338   1.000000
     49        -10.763128   1.000000
     50        -10.653825   1.000000
     51        -10.602013   1.000000
     52        -10.537103   1.000000
     53        -10.512402   1.000000
     54        -10.320502   1.000000
     55        -10.271105   1.000000
     56        -10.251213   1.000000
     57        -10.185172   1.000000
     58        -10.163515   1.000000
     59        -10.103692   1.000000
     60        -10.097626   1.000000
     61         -9.861644   1.000000
     62         -9.742524   1.000000
     63         -9.731782   1.000000
     64         -9.676483   1.000000
     65         -9.368109   1.000000
     66         -9.305310   1.000000
     67         -9.122133   1.000000
     68         -9.101152   1.000000
     69         -9.076739   1.000000
     70         -8.974871   1.000000
     71         -8.909726   1.000000
     72         -8.885526   1.000000
     73         -8.878871   1.000000
     74         -8.817337   1.000000
     75         -8.599931   1.000000
     76         -8.532519   1.000000
     77         -8.416621   1.000000
     78         -8.345618   1.000000
     79         -8.334692   1.000000
     80         -8.239909   1.000000
     81         -8.222565   1.000000
     82         -8.070147   1.000000
     83         -8.060217   1.000000
     84         -7.997530   1.000000
     85         -7.984641   1.000000
     86         -7.856163   1.000000
     87         -7.797515   1.000000
     88         -7.765918   1.000000
     89         -7.730154   1.000000
     90         -7.659237   1.000000
     91         -7.650294   1.000000
     92         -7.625607   1.000000
     93         -7.550844   1.000000
     94         -7.526790   1.000000
     95         -7.428063   1.000000
     96         -7.404828   1.000000
     97         -7.342705   1.000000
     98         -7.235916   1.000000
     99         -7.198078   1.000000
    100         -7.184922   1.000000
    101         -7.169563   1.000000
    102         -7.062036   1.000000
    103         -6.968209   1.000000
    104         -6.947323   1.000000
    105         -6.909902   1.000000
    106         -6.798911   1.000000
    107         -6.746504   1.000000
    108         -6.733916   1.000000
    109         -6.632318   1.000000
    110         -6.586757   1.000000
    111         -6.563617   1.000000
    112         -6.536539   1.000000
    113         -6.459123   1.000000
    114         -6.429930   1.000000
    115         -6.409700   1.000000
    116         -6.404679   1.000000
    117         -6.393063   1.000000
    118         -6.269166   1.000000
    119         -6.223676   1.000000
    120         -6.181434   1.000000
    121         -6.177526   1.000000
    122         -6.149698   1.000000
    123         -6.097145   1.000000
    124         -6.052512   1.000000
    125         -6.036014   1.000000
    126         -6.009029   1.000000
    127         -5.964290   1.000000
    128         -5.963848   1.000000
    129         -5.897911   1.000000
    130         -5.890141   1.000000
    131         -5.833492   1.000000
    132         -5.781572   1.000000
    133         -5.777736   1.000000
    134         -5.755692   1.000000
    135         -5.691793   1.000000
    136         -5.601335   1.000000
    137         -5.556661   1.000000
    138         -5.515974   1.000000
    139         -5.508096   1.000000
    140         -5.494387   1.000000
    141         -5.468754   1.000000
    142         -5.433964   1.000000
    143         -5.403360   1.000000
    144         -5.380127   1.000000
    145         -5.359637   1.000000
    146         -5.276470   1.000000
    147         -5.274681   1.000000