 vasp.6.3.2 27Jun22 (build Mar 15 2023 15:45:48) complex                        
  
 executed on             LinuxIFC date 2024.07.24  09:05:32
 running on    4 total cores
 distrk:  each k-point on    1 cores,    4 groups
 distr:  one band on NCORE=   1 cores,    1 groups


--------------------------------------------------------------------------------------------------------


 INCAR:
   SYSTEM = ni3al
   PREC = Accurate
   EDIFF = 1E-4
   EDIFFG = -2E-2
   ISTART = 0
   NCORE = 4
   ICHARG = 2
   LREAL = Auto
   NSW = 300
   ISIF = 2
   IBRION = 2
   ISMEAR = 0
   SIGMA = 0.1
   ENCUT = 530
   ALGO = Fast
   LMAXMIX = 4
   AMIN = 0.01
   NELM = 150
   LCHARG = .FALSE.
   LWAVE = .FALSE.
   KPAR = 8

 POTCAR:    PAW_PBE O 08Apr2002                   
 POTCAR:    PAW_PBE Al 04Jan2001                  
 POTCAR:    PAW_PBE O 08Apr2002                   
   VRHFIN =O: s2p4                                                                                  
   LEXCH  = PE                                                                                      
   EATOM  =   432.3788 eV,   31.7789 Ry                                                             
                                                                                                    
   TITEL  = PAW_PBE O 08Apr2002                                                                     
   LULTRA =        F    use ultrasoft PP ?                                                          
   IUNSCR =        1    unscreen: 0-lin 1-nonlin 2-no                                               
   RPACOR =    1.200    partial core radius                                                         
   POMASS =   16.000; ZVAL   =    6.000    mass and valenz                                          
   RCORE  =    1.520    outmost cutoff radius                                                       
   RWIGS  =    1.550; RWIGS  =    0.820    wigner-seitz radius (au A)                               
   ENMAX  =  400.000; ENMIN  =  300.000 eV                                                          
   ICORE  =        2    local potential                                                             
   LCOR   =        T    correct aug charges                                                         
   LPAW   =        T    paw PP                                                                      
   EAUG   =  605.392                                                                                
   DEXC   =    0.000                                                                                
   RMAX   =    1.553    core radius for proj-oper                                                   
   RAUG   =    1.300    factor for augmentation sphere                                              
   RDEP   =    1.550    radius for radial grids                                                     
   RDEPT  =    1.329    core radius for aug-charge                                                  
                                                                                                    
   Atomic configuration                                                                             
    4 entries                                                                                       
     n  l   j            E        occ.                                                              
     1  0  0.50      -514.6923   2.0000                                                             
     2  0  0.50       -23.9615   2.0000                                                             
     2  1  0.50        -9.0305   4.0000                                                             
     3  2  1.50        -9.5241   0.0000                                                             
   Description                                                                                      
     l       E           TYP  RCUT    TYP  RCUT                                                     
     0    -23.9615318     23  1.200                                                                 
     0     -9.5240782     23  1.200                                                                 
     1     -9.0304911     23  1.520                                                                 
     1      8.1634956     23  1.520                                                                 
     2     -9.5240782      7  1.500                                                                 
  local pseudopotential read in
  partial core-charges read in
  partial kinetic energy density read in
  kinetic energy density of atom read in
  atomic valenz-charges read in
  non local Contribution for L=           0  read in
    real space projection operators read in
  non local Contribution for L=           0  read in
    real space projection operators read in
  non local Contribution for L=           1  read in
    real space projection operators read in
  non local Contribution for L=           1  read in
    real space projection operators read in
    PAW grid and wavefunctions read in
 
   number of l-projection  operators is LMAX  =           4
   number of lm-projection operators is LMMAX =           8
 
 POTCAR:    PAW_PBE Al 04Jan2001                  
   VRHFIN =Al: s2p1                                                                                 
   LEXCH  = PE                                                                                      
   EATOM  =    53.5387 eV,    3.9350 Ry                                                             
                                                                                                    
   TITEL  = PAW_PBE Al 04Jan2001                                                                    
   LULTRA =        F    use ultrasoft PP ?                                                          
   IUNSCR =        1    unscreen: 0-lin 1-nonlin 2-no                                               
   RPACOR =    1.500    partial core radius                                                         
   POMASS =   26.981; ZVAL   =    3.000    mass and valenz                                          
   RCORE  =    1.900    outmost cutoff radius                                                       
   RWIGS  =    2.650; RWIGS  =    1.402    wigner-seitz radius (au A)                               
   ENMAX  =  240.300; ENMIN  =  180.225 eV                                                          
   ICORE  =        2    local potential                                                             
   LCOR   =        T    correct aug charges                                                         
   LPAW   =        T    paw PP                                                                      
   EAUG   =  291.052                                                                                
   DEXC   =    0.000                                                                                
   RMAX   =    1.939    core radius for proj-oper                                                   
   RAUG   =    1.300    factor for augmentation sphere                                              
   RDEP   =    1.966    radius for radial grids                                                     
   RDEPT  =    1.856    core radius for aug-charge                                                  
                                                                                                    
   Atomic configuration                                                                             
    6 entries                                                                                       
     n  l   j            E        occ.                                                              
     1  0  0.50     -1511.1048   2.0000                                                             
     2  0  0.50      -108.1629   2.0000                                                             
     2  1  1.50       -69.6402   6.0000                                                             
     3  0  0.50        -7.7528   2.0000                                                             
     3  1  1.50        -2.7121   1.0000                                                             
     3  2  2.50        -2.7212   0.0000                                                             
   Description                                                                                      
     l       E           TYP  RCUT    TYP  RCUT                                                     
     0     -7.7528455     23  1.900                                                                 
     0     -3.3096929     23  1.900                                                                 
     1     -2.7120682     23  1.900                                                                 
     1     13.6058260     23  1.900                                                                 
     2     -2.7211652      7  1.900                                                                 
  local pseudopotential read in
  partial core-charges read in
  partial kinetic energy density read in
  atomic valenz-charges read in
  non local Contribution for L=           0  read in
    real space projection operators read in
  non local Contribution for L=           0  read in
    real space projection operators read in
  non local Contribution for L=           1  read in
    real space projection operators read in
  non local Contribution for L=           1  read in
    real space projection operators read in
    PAW grid and wavefunctions read in
 
   number of l-projection  operators is LMAX  =           4
   number of lm-projection operators is LMMAX =           8
 
 Optimization of the real space projectors (new method)

 maximal supplied QI-value         = 24.76
 optimisation between [QCUT,QGAM] = [ 11.64, 23.52] = [ 37.91,154.88] Ry 
 Optimized for a Real-space Cutoff    1.16 Angstroem

   l    n(q)    QCUT    max X(q) W(low)/X(q) W(high)/X(q)  e(spline) 
   0      8    11.635    20.381    0.63E-04    0.20E-03    0.27E-06
   0      8    11.635    15.268    0.67E-04    0.21E-03    0.29E-06
   1      8    11.635     5.964    0.19E-03    0.13E-03    0.31E-06
   1      8    11.635     5.382    0.18E-03    0.10E-03    0.27E-06
 Optimization of the real space projectors (new method)

 maximal supplied QI-value         = 19.84
 optimisation between [QCUT,QGAM] = [ 11.71, 23.41] = [ 38.38,153.51] Ry 
 Optimized for a Real-space Cutoff    1.20 Angstroem

   l    n(q)    QCUT    max X(q) W(low)/X(q) W(high)/X(q)  e(spline) 
   0      8    11.707   176.870    0.56E-04    0.14E-03    0.47E-07
   0      8    11.707   105.762    0.55E-04    0.13E-03    0.46E-07
   1      8    11.707    55.370    0.15E-03    0.19E-04    0.75E-07
   1      8    11.707    20.208    0.14E-03    0.15E-04    0.69E-07
  PAW_PBE O 08Apr2002                   :
 energy of atom  1       EATOM= -432.3788
 kinetic energy error for atom=    0.0203 (will be added to EATOM!!)
  PAW_PBE Al 04Jan2001                  :
 energy of atom  2       EATOM=  -53.5387
 kinetic energy error for atom=    0.0002 (will be added to EATOM!!)
 
 
 POSCAR: SCAR
  positions in direct lattice
  velocities in cartesian coordinates
  No initial velocities read in
 exchange correlation table for  LEXCH =        8
   RHO(1)=    0.500       N(1)  =     2000
   RHO(2)=  100.500       N(2)  =     4000

 VTST: version 4.2, (08/11/21)

 CHAIN: initializing optimizer
 
 OPT: Using VASP Conjugate-Gradient optimizer
 CHAIN: Read ICHAIN            0
 
 POSCAR: SCAR
  positions in direct lattice
  velocities in cartesian coordinates
  No initial velocities read in
 


--------------------------------------------------------------------------------------------------------


 ion  position               nearest neighbor table
   1  0.173  0.986  0.000-  53 1.87  52 1.99
   2  0.423  0.486  0.000-  54 1.87  63 1.99
   3  0.097  0.500  0.101-  49 1.87  51 1.87  60 1.99  54 1.99
   4  0.347  0.000  0.101-  50 1.87  52 1.87  71 1.99  65 1.99
   5  0.153  0.333  0.000-  54 1.87  51 1.99
   6  0.403  0.833  0.000-  65 1.87  52 1.99
   7  0.173  0.680  0.000-  54 1.87  52 1.99
   8  0.423  0.180  0.000-  65 1.87  63 1.99
   9  0.077  0.153  0.101-  50 1.87  51 1.87  59 1.99  53 1.99
  10  0.327  0.653  0.101-  61 1.87  52 1.87  60 1.99  54 1.99
  11  0.077  0.847  0.101-  52 1.87  49 1.87  59 1.99  53 1.99
  12  0.327  0.347  0.101-  63 1.87  50 1.87  60 1.99  54 1.99
  13  0.173  0.320  0.203-  57 1.87  60 1.87  56 1.99  50 1.99
  14  0.423  0.820  0.203-  58 1.87  71 1.87  67 1.99  61 1.99
  15  0.097  0.833  0.304-  55 1.87  58 1.99
  16  0.347  0.333  0.304-  56 1.87  69 1.99
  17  0.153  0.667  0.203-  58 1.87  60 1.87  55 1.99  49 1.99
  18  0.403  0.167  0.203-  69 1.87  71 1.87  56 1.99  50 1.99
  19  0.173  0.014  0.203-  59 1.87  58 1.87  56 1.99  50 1.99
  20  0.423  0.514  0.203-  60 1.87  69 1.87  67 1.99  61 1.99
  21  0.077  0.486  0.304-  55 1.87  57 1.99
  22  0.327  0.986  0.304-  56 1.87  58 1.99
  23  0.077  0.180  0.304-  56 1.87  57 1.99
  24  0.327  0.680  0.304-  67 1.87  58 1.99
  25  0.673  0.986  0.000-  65 1.87  64 1.99
  26  0.923  0.486  0.000-  66 1.87  51 1.99
  27  0.597  0.500  0.101-  61 1.87  63 1.87  72 1.99  66 1.99
  28  0.847  0.000  0.101-  62 1.87  64 1.87  59 1.99  53 1.99
  29  0.653  0.333  0.000-  66 1.87  63 1.99
  30  0.903  0.833  0.000-  53 1.87  64 1.99
  31  0.673  0.680  0.000-  66 1.87  64 1.99
  32  0.923  0.180  0.000-  53 1.87  51 1.99
  33  0.577  0.153  0.101-  62 1.87  63 1.87  71 1.99  65 1.99
  34  0.827  0.653  0.101-  49 1.87  64 1.87  72 1.99  66 1.99
  35  0.577  0.847  0.101-  64 1.87  61 1.87  71 1.99  65 1.99
  36  0.827  0.347  0.101-  51 1.87  62 1.87  72 1.99  66 1.99
  37  0.673  0.320  0.203-  69 1.87  72 1.87  68 1.99  62 1.99
  38  0.923  0.820  0.203-  70 1.87  59 1.87  55 1.99  49 1.99
  39  0.597  0.833  0.304-  67 1.87  70 1.99
  40  0.847  0.333  0.304-  68 1.87  57 1.99
  41  0.653  0.667  0.203-  70 1.87  72 1.87  67 1.99  61 1.99
  42  0.903  0.167  0.203-  57 1.87  59 1.87  68 1.99  62 1.99
  43  0.673  0.014  0.203-  71 1.87  70 1.87  68 1.99  62 1.99
  44  0.923  0.514  0.203-  57 1.87  72 1.87  55 1.99  49 1.99
  45  0.577  0.486  0.304-  67 1.87  69 1.99
  46  0.827  0.986  0.304-  68 1.87  70 1.99
  47  0.577  0.180  0.304-  68 1.87  69 1.99
  48  0.827  0.680  0.304-  55 1.87  70 1.99
  49  0.000  0.667  0.141-  34 1.87   3 1.87  11 1.87  17 1.99  44 1.99  38 1.99  55 2.68  59 2.82
                            60 2.82  72 2.82  64 3.25  52 3.25  51 3.25
  50  0.250  0.167  0.141-   9 1.87  12 1.87   4 1.87  19 1.99  13 1.99  18 1.99  56 2.68  60 2.82
                            59 2.82  71 2.82  63 3.25  51 3.25  52 3.25
  51  0.000  0.333  0.062-  36 1.87   3 1.87   9 1.87  26 1.99  32 1.99   5 1.99  53 2.82  54 2.82
                            66 2.82  62 3.25  50 3.25  49 3.25
  52  0.250  0.833  0.062-  11 1.87  10 1.87   4 1.87   7 1.99   1 1.99   6 1.99  54 2.82  53 2.82
                            65 2.82  61 3.25  49 3.25  50 3.25
  53  0.000  0.000  0.039-  32 1.87   1 1.87  30 1.87  28 1.99  11 1.99   9 1.99  59 2.68  51 2.82
                            52 2.82  64 2.82
  54  0.250  0.500  0.039-   2 1.87   5 1.87   7 1.87  10 1.99  12 1.99   3 1.99  60 2.68  52 2.82
                            51 2.82  63 2.82
  55  0.000  0.667  0.265-  15 1.87  48 1.87  21 1.87  17 1.99  44 1.99  38 1.99  49 2.68  58 2.82
                            70 2.82  57 2.82
  56  0.250  0.167  0.265-  23 1.87  16 1.87  22 1.87  19 1.99  13 1.99  18 1.99  50 2.68  57 2.82
                            69 2.82  58 2.82
  57  0.000  0.333  0.242-  42 1.87  13 1.87  44 1.87  40 1.99  21 1.99  23 1.99  56 2.82  68 2.82
                            55 2.82  59 3.25  60 3.25  72 3.25
  58  0.250  0.833  0.242-  14 1.87  17 1.87  19 1.87  22 1.99  24 1.99  15 1.99  55 2.82  67 2.82
                            56 2.82  60 3.25  59 3.25  71 3.25
  59  0.000  0.000  0.164-  38 1.87  19 1.87  42 1.87  28 1.99   9 1.99  11 1.99  53 2.68  49 2.82
                            50 2.82  62 2.82  57 3.25  58 3.25  70 3.25
  60  0.250  0.500  0.164-  13 1.87  20 1.87  17 1.87  12 1.99  10 1.99   3 1.99  54 2.68  50 2.82
                            49 2.82  61 2.82  58 3.25  57 3.25  69 3.25
  61  0.500  0.667  0.141-  10 1.87  35 1.87  27 1.87  20 1.99  14 1.99  41 1.99  67 2.68  71 2.82
                            60 2.82  72 2.82  64 3.25  52 3.25  63 3.25
  62  0.750  0.167  0.141-  33 1.87  36 1.87  28 1.87  43 1.99  37 1.99  42 1.99  68 2.68  72 2.82
                            71 2.82  59 2.82  63 3.25  51 3.25  64 3.25
  63  0.500  0.333  0.062-  12 1.87  33 1.87  27 1.87   2 1.99   8 1.99  29 1.99  65 2.82  54 2.82
                            66 2.82  50 3.25  62 3.25  61 3.25
  64  0.750  0.833  0.062-  35 1.87  34 1.87  28 1.87  25 1.99  31 1.99  30 1.99  66 2.82  65 2.82
                            53 2.82  49 3.25  61 3.25  62 3.25
  65  0.500  0.000  0.039-   8 1.87  25 1.87   6 1.87   4 1.99  33 1.99  35 1.99  71 2.68  63 2.82
                            64 2.82  52 2.82
  66  0.750  0.500  0.039-  31 1.87  26 1.87  29 1.87  27 1.99  34 1.99  36 1.99  72 2.68  64 2.82
                            51 2.82  63 2.82
  67  0.500  0.667  0.265-  24 1.87  39 1.87  45 1.87  20 1.99  14 1.99  41 1.99  61 2.68  58 2.82
                            70 2.82  69 2.82
  68  0.750  0.167  0.265-  47 1.87  40 1.87  46 1.87  43 1.99  37 1.99  42 1.99  62 2.68  57 2.82
                            69 2.82  70 2.82
  69  0.500  0.333  0.242-  18 1.87  37 1.87  20 1.87  16 1.99  45 1.99  47 1.99  56 2.82  68 2.82
                            67 2.82  71 3.25  60 3.25  72 3.25
  70  0.750  0.833  0.242-  41 1.87  38 1.87  43 1.87  39 1.99  46 1.99  48 1.99  55 2.82  67 2.82
                            68 2.82  72 3.25  71 3.25  59 3.25
  71  0.500  0.000  0.164-  14 1.87  43 1.87  18 1.87   4 1.99  35 1.99  33 1.99  65 2.68  61 2.82
                            62 2.82  50 2.82  69 3.25  58 3.25  70 3.25
  72  0.750  0.500  0.164-  37 1.87  44 1.87  41 1.87  27 1.99  36 1.99  34 1.99  66 2.68  62 2.82
                            49 2.82  61 2.82  70 3.25  69 3.25  57 3.25
 
  LATTYP: Found a simple orthorhombic cell.
 ALAT       =     8.3267490000
 B/A-ratio  =     1.1547005920
 C/A-ratio  =     2.5893164307
  
  Lattice vectors:
  
 A1 = (   0.0000000000,  -8.3267490000,   0.0000000000)
 A2 = (   9.6149020000,   0.0000000000,   0.0000000000)
 A3 = (   0.0000000000,   0.0000000000,  21.5605880000)


Analysis of symmetry for initial positions (statically):
=====================================================================
 Subroutine PRICEL returns following result:
 
  LATTYP: Found a hexagonal cell.
 ALAT       =     4.8074510000
 C/A-ratio  =     4.4848274065
  
  Lattice vectors:
  
 A1 = (  -4.8074510000,   0.0000000000,   0.0000000000)
 A2 = (   2.4037255000,  -4.1633745000,   0.0000000000)
 A3 = (   0.0000000000,   0.0000000000,  21.5605880000)
 
   4 primitive cells build up your supercell.
 

 Routine SETGRP: Setting up the symmetry group for a 
 simple orthorhombic supercell.


 Subroutine GETGRP returns: Found  2 space group operations
 (whereof  1 operations were pure point group operations)
 out of a pool of  8 trial point group operations.


The static configuration has the point symmetry C_1 .
 The point group associated with its full space group is S_2 .


Analysis of symmetry for dynamics (positions and initial velocities):
=====================================================================
 Subroutine PRICEL returns following result:
 
  LATTYP: Found a hexagonal cell.
 ALAT       =     4.8074510000
 C/A-ratio  =     4.4848274065
  
  Lattice vectors:
  
 A1 = (  -4.8074510000,   0.0000000000,   0.0000000000)
 A2 = (   2.4037255000,  -4.1633745000,   0.0000000000)
 A3 = (   0.0000000000,   0.0000000000,  21.5605880000)
 
   4 primitive cells build up your supercell.
 

 Routine SETGRP: Setting up the symmetry group for a 
 simple orthorhombic supercell.


 Subroutine GETGRP returns: Found  2 space group operations
 (whereof  1 operations were pure point group operations)
 out of a pool of  8 trial point group operations.


The dynamic configuration has the point symmetry C_1 .
 The point group associated with its full space group is S_2 .


Analysis of constrained symmetry for selective dynamics:
=====================================================================
 Subroutine PRICEL returns following result:
 
  LATTYP: Found a hexagonal cell.
 ALAT       =     4.8074510000
 C/A-ratio  =     4.4848274065
  
  Lattice vectors:
  
 A1 = (  -4.8074510000,   0.0000000000,   0.0000000000)
 A2 = (   2.4037255000,  -4.1633745000,   0.0000000000)
 A3 = (   0.0000000000,   0.0000000000,  21.5605880000)
 
   4 primitive cells build up your supercell.
 

 Routine SETGRP: Setting up the symmetry group for a 
 simple orthorhombic supercell.


 Subroutine GETGRP returns: Found  1 space group operations
 (whereof  1 operations were pure point group operations)
 out of a pool of  8 trial point group operations.


The constrained configuration has the point symmetry C_1 .


 Subroutine INISYM returns: Found  1 space group operations
 (whereof  1 operations are pure point group operations),
 and found     4 'primitive' translations


----------------------------------------------------------------------------------------

                                     Primitive cell                                     

  volume of cell :     431.5399

  direct lattice vectors                    reciprocal lattice vectors
    -4.807451000  0.000000000  0.000000000    -0.208010440 -0.120094889  0.000000000
     2.403725500 -4.163374500  0.000000000     0.000000000 -0.240189779  0.000000000
     0.000000000  0.000000000 21.560588000     0.000000000  0.000000000  0.046380924

  length of vectors
     4.807451000  4.807450832 21.560588000     0.240189770  0.240189779  0.046380924

  position of ions in fractional coordinates (direct lattice)
     0.666667000  0.027158000  0.000000000
     0.306174000  0.000000000  0.101429000
     0.360491000  0.333334000  0.000000000
     0.972842000  0.639508000  0.000000000
     0.693825000  0.693826000  0.101429000
     0.999999000  0.306174000  0.101429000
     0.333333000  0.360490000  0.202858000
     0.972843000  0.333334000  0.304286000
     0.027157000  0.666666000  0.202858000
     0.639508000  0.972840000  0.202858000
     0.360492000  0.027160000  0.304286000
     0.666667000  0.639510000  0.304286000
     0.333333000  0.666666000  0.140706000
     0.666667000  0.333334000  0.062152000
     0.000000000  0.000000000  0.039277000
     0.333333000  0.666666000  0.265009000
     0.666667000  0.333334000  0.242134000
     0.000000000  0.000000000  0.163581000

  ion indices of the primitive-cell ions
   primitive index   ion index
                 1           1
                 2           4
                 3           6
                 4           7
                 5           9
                 6          11
                 7          14
                 8          15
                 9          18
                10          19
                11          22
                12          23
                13          50
                14          52
                15          53
                16          56
                17          58
                18          59

----------------------------------------------------------------------------------------

 
 
 KPOINTS: K-Spacing Value to Generate K-Mesh: 0.03

Automatic generation of k-mesh.
 Grid dimensions read from file:
 generate k-points for:    3    4    1

 Generating k-lattice:

  Cartesian coordinates                     Fractional coordinates (reciprocal lattice)
     0.034668407  0.000000000  0.000000000     0.333333333  0.000000000  0.000000000
     0.000000000  0.030023722  0.000000000     0.000000000  0.250000000  0.000000000
     0.000000000  0.000000000  0.046380924     0.000000000  0.000000000  1.000000000

  Length of vectors
     0.034668407  0.030023722  0.046380924

  Shift w.r.t. Gamma in fractional coordinates (k-lattice)
     0.000000000  0.000000000  0.000000000

 
 Subroutine IBZKPT returns following result:
 ===========================================
 
 Found      7 irreducible k-points:
 
 Following reciprocal coordinates:
            Coordinates               Weight
  0.000000  0.000000  0.000000      1.000000
  0.333333  0.000000  0.000000      2.000000
  0.000000  0.250000  0.000000      2.000000
  0.333333  0.250000  0.000000      2.000000
 -0.333333  0.250000  0.000000      2.000000
  0.000000  0.500000  0.000000      1.000000
  0.333333  0.500000  0.000000      2.000000
 
 Following cartesian coordinates:
            Coordinates               Weight
  0.000000  0.000000  0.000000      1.000000
  0.034668  0.000000  0.000000      2.000000
  0.000000  0.030024  0.000000      2.000000
  0.034668  0.030024  0.000000      2.000000
 -0.034668  0.030024  0.000000      2.000000
  0.000000  0.060047  0.000000      1.000000
  0.034668  0.060047  0.000000      2.000000
 


--------------------------------------------------------------------------------------------------------




 Dimension of arrays:
   k-points           NKPTS =      7   k-points in BZ     NKDIM =      7   number of bands    NBANDS=    217
   number of dos      NEDOS =    301   number of ions     NIONS =     72
   non local maximal  LDIM  =      4   non local SUM 2l+1 LMDIM =      8
   total plane-waves  NPLWV = 746496
   max r-space proj   IRMAX =   3175   max aug-charges    IRDMAX=  17029
   dimension x,y,z NGX =    72 NGY =   64 NGZ =  162
   dimension x,y,z NGXF=   144 NGYF=  128 NGZF=  324
   support grid    NGXF=   144 NGYF=  128 NGZF=  324
   ions per type =              48  24
   NGX,Y,Z   is equivalent  to a cutoff of  12.45, 12.78, 12.49 a.u.
   NGXF,Y,Z  is equivalent  to a cutoff of  24.90, 25.56, 24.98 a.u.

 SYSTEM =  ni3al                                   
 POSCAR =  SCAR                                    

 Startparameter for this run:
   NWRITE =      2    write-flag & timer
   PREC   = accura    normal or accurate (medium, high low for compatibility)
   ISTART =      0    job   : 0-new  1-cont  2-samecut
   ICHARG =      2    charge: 1-file 2-atom 10-const
   ISPIN  =      1    spin polarized calculation?
   LNONCOLLINEAR =      F non collinear calculations
   LSORBIT =      F    spin-orbit coupling
   INIWAV =      1    electr: 0-lowe 1-rand  2-diag
   LASPH  =      F    aspherical Exc in radial PAW
 Electronic Relaxation 1
   ENCUT  =  530.0 eV  38.95 Ry    6.24 a.u.  18.05 15.63 40.47*2*pi/ulx,y,z
   ENINI  =  530.0     initial cutoff
   ENAUG  =  605.4 eV  augmentation charge cutoff
   NELM   =    150;   NELMIN=  2; NELMDL= -5     # of ELM steps 
   EDIFF  = 0.1E-03   stopping-criterion for ELM
   LREAL  =      T    real-space projection
   NLSPLINE    = F    spline interpolate recip. space projectors
   LCOMPAT=      F    compatible to vasp.4.4
   GGA_COMPAT  = T    GGA compatible to vasp.4.4-vasp.4.6
   LMAXPAW     = -100 max onsite density
   LMAXMIX     =    4 max onsite mixed and CHGCAR
   VOSKOWN=      0    Vosko Wilk Nusair interpolation
   ROPT   =   -0.00025  -0.00025
 Ionic relaxation
   EDIFFG = -.2E-01   stopping-criterion for IOM
   NSW    =    300    number of steps for IOM
   NBLOCK =      1;   KBLOCK =    300    inner block; outer block 
   IBRION =      2    ionic relax: 0-MD 1-quasi-New 2-CG
   NFREE  =      1    steps in history (QN), initial steepest desc. (CG)
   ISIF   =      2    stress and relaxation
   IWAVPR =     11    prediction:  0-non 1-charg 2-wave 3-comb
   ISYM   =      2    0-nonsym 1-usesym 2-fastsym
   LCORR  =      T    Harris-Foulkes like correction to forces

   POTIM  = 0.5000    time-step for ionic-motion
   TEIN   =    0.0    initial temperature
   TEBEG  =    0.0;   TEEND  =   0.0 temperature during run
   SMASS  =  -3.00    Nose mass-parameter (am)
   estimated Nose-frequenzy (Omega)   =  0.10E-29 period in steps = 0.13E+47 mass=  -0.211E-26a.u.
   SCALEE = 1.0000    scale energy and forces
   NPACO  =    256;   APACO  = 10.0  distance and # of slots for P.C.
   PSTRESS=    0.0 pullay stress

  Mass of Ions in am
   POMASS =  16.00 26.98
  Ionic Valenz
   ZVAL   =   6.00  3.00
  Atomic Wigner-Seitz radii
   RWIGS  =  -1.00 -1.00
  virtual crystal weights 
   VCA    =   1.00  1.00
   NELECT =     360.0000    total number of electrons
   NUPDOWN=      -1.0000    fix difference up-down

 DOS related values:
   EMIN   =  10.00;   EMAX   =-10.00  energy-range for DOS
   EFERMI =   0.00
   ISMEAR =     0;   SIGMA  =   0.10  broadening in eV -4-tet -1-fermi 0-gaus

 Electronic relaxation 2 (details)
   IALGO  =     68    algorithm
   LDIAG  =      T    sub-space diagonalisation (order eigenvalues)
   LSUBROT=      F    optimize rotation matrix (better conditioning)
   TURBO    =      0    0=normal 1=particle mesh
   IRESTART =      0    0=no restart 2=restart with 2 vectors
   NREBOOT  =      0    no. of reboots
   NMIN     =      0    reboot dimension
   EREF     =   0.00    reference energy to select bands
   IMIX   =      4    mixing-type and parameters
     AMIX     =   0.40;   BMIX     =  1.00
     AMIX_MAG =   1.60;   BMIX_MAG =  1.00
     AMIN     =   0.01
     WC   =   100.;   INIMIX=   1;  MIXPRE=   1;  MAXMIX= -45

 Intra band minimization:
   WEIMIN = 0.0010     energy-eigenvalue tresh-hold
   EBREAK =  0.12E-06  absolut break condition
   DEPER  =   0.30     relativ break condition  

   TIME   =   0.40     timestep for ELM

  volume/ion in A,a.u.               =      23.97       161.79
  Fermi-wavevector in a.u.,A,eV,Ry     =   0.970842  1.834626 12.823964  0.942535
  Thomas-Fermi vector in A             =   2.101011
 
 Write flags
   LWAVE        =      F    write WAVECAR
   LDOWNSAMPLE  =      F    k-point downsampling of WAVECAR
   LCHARG       =      F    write CHGCAR
   LVTOT        =      F    write LOCPOT, total local potential
   LVHAR        =      F    write LOCPOT, Hartree potential only
   LELF         =      F    write electronic localiz. function (ELF)
   LORBIT       =      0    0 simple, 1 ext, 2 COOP (PROOUT), +10 PAW based schemes


 Dipole corrections
   LMONO  =      F    monopole corrections only (constant potential shift)
   LDIPOL =      F    correct potential (dipole corrections)
   IDIPOL =      0    1-x, 2-y, 3-z, 4-all directions 
   EPSILON=  1.0000000 bulk dielectric constant

 Exchange correlation treatment:
   GGA     =    --    GGA type
   LEXCH   =     8    internal setting for exchange type
   LIBXC   =     F    Libxc                    
   VOSKOWN =     0    Vosko Wilk Nusair interpolation
   LHFCALC =     F    Hartree Fock is set to
   LHFONE  =     F    Hartree Fock one center treatment
   AEXX    =    0.0000 exact exchange contribution

 Linear response parameters
   LEPSILON=     F    determine dielectric tensor
   LRPA    =     F    only Hartree local field effects (RPA)
   LNABLA  =     F    use nabla operator in PAW spheres
   LVEL    =     F    velocity operator in full k-point grid
   CSHIFT  =0.1000    complex shift for real part using Kramers Kronig
   OMEGAMAX=  -1.0    maximum frequency
   DEG_THRESHOLD= 0.2000000E-02 threshold for treating states as degnerate
   RTIME   =   -0.100 relaxation time in fs
  (WPLASMAI=    0.000 imaginary part of plasma frequency in eV, 0.658/RTIME)
   DFIELD  = 0.0000000 0.0000000 0.0000000 field for delta impulse in time
 
  Optional k-point grid parameters
   LKPOINTS_OPT  =     F    use optional k-point grid
   KPOINTS_OPT_MODE=     1    mode for optional k-point grid
 
 Orbital magnetization related:
   ORBITALMAG=     F  switch on orbital magnetization
   LCHIMAG   =     F  perturbation theory with respect to B field
   DQ        =  0.001000  dq finite difference perturbation B field
   LLRAUG    =     F  two centre corrections for induced B field



--------------------------------------------------------------------------------------------------------


 conjugate gradient relaxation of ions
   using selective dynamics as specified on POSCAR
 charge density and potential will be updated during run
 non-spin polarized calculation
 RMM-DIIS sequential band-by-band and
  variant of blocked Davidson during initial phase
 perform sub-space diagonalisation
    before iterative eigenvector-optimisation
 modified Broyden-mixing scheme, WC =      100.0
 initial mixing is a Kerker type mixing with AMIX =  0.4000 and BMIX =      1.0000
 Hartree-type preconditioning will be used
 using additional bands           37
 real space projection scheme for non local part
 use partial core corrections
 calculate Harris-corrections to forces 
   (improved forces if not selfconsistent)
 use gradient corrections 
 use of overlap-Matrix (Vanderbilt PP)
 Gauss-broadening in eV      SIGMA  =   0.10


--------------------------------------------------------------------------------------------------------


  energy-cutoff  :      530.00
  volume of cell :     1726.16
      direct lattice vectors                 reciprocal lattice vectors
     9.614902000  0.000000000  0.000000000     0.104005220  0.000000000  0.000000000
     0.000000000  8.326749000  0.000000000     0.000000000  0.120094889  0.000000000
     0.000000000  0.000000000 21.560588000     0.000000000  0.000000000  0.046380924

  length of vectors
     9.614902000  8.326749000 21.560588000     0.104005220  0.120094889  0.046380924


 
 k-points in units of 2pi/SCALE and weight: K-Spacing Value to Generate K-Mesh: 0.03
   0.00000000  0.00000000  0.00000000       0.083
   0.03466841  0.00000000  0.00000000       0.167
   0.00000000  0.03002372  0.00000000       0.167
   0.03466841  0.03002372  0.00000000       0.167
  -0.03466841  0.03002372  0.00000000       0.167
   0.00000000  0.06004744  0.00000000       0.083
   0.03466841  0.06004744  0.00000000       0.167
 
 k-points in reciprocal lattice and weights: K-Spacing Value to Generate K-Mesh: 0.03
   0.00000000  0.00000000  0.00000000       0.083
   0.33333333  0.00000000  0.00000000       0.167
   0.00000000  0.25000000  0.00000000       0.167
   0.33333333  0.25000000  0.00000000       0.167
  -0.33333333  0.25000000  0.00000000       0.167
   0.00000000  0.50000000  0.00000000       0.083
   0.33333333  0.50000000  0.00000000       0.167
 
 position of ions in fractional coordinates (direct lattice) 
   0.17345600  0.98642100  0.00000000
   0.42345600  0.48642100  0.00000000
   0.09691200  0.50000000  0.10142900
   0.34691300  0.00000000  0.10142900
   0.15308800  0.33333300  0.00000000
   0.40308800  0.83333300  0.00000000
   0.17345600  0.68024600  0.00000000
   0.42345600  0.18024500  0.00000000
   0.07654400  0.15308700  0.10142900
   0.32654400  0.65308700  0.10142900
   0.07654400  0.84691300  0.10142900
   0.32654400  0.34691300  0.10142900
   0.17345600  0.31975500  0.20285800
   0.42345600  0.81975500  0.20285800
   0.09691200  0.83333300  0.30428600
   0.34691300  0.33333300  0.30428600
   0.15308700  0.66666700  0.20285800
   0.40308800  0.16666700  0.20285800
   0.17345600  0.01358000  0.20285800
   0.42345600  0.51358000  0.20285800
   0.07654400  0.48642100  0.30428600
   0.32654400  0.98642000  0.30428600
   0.07654400  0.18024500  0.30428600
   0.32654400  0.68024600  0.30428600
   0.67345600  0.98642100  0.00000000
   0.92345600  0.48642100  0.00000000
   0.59691300  0.50000000  0.10142900
   0.84691300  0.00000000  0.10142900
   0.65308800  0.33333300  0.00000000
   0.90308800  0.83333300  0.00000000
   0.67345600  0.68024500  0.00000000
   0.92345600  0.18024500  0.00000000
   0.57654400  0.15308700  0.10142900
   0.82654400  0.65308700  0.10142900
   0.57654400  0.84691300  0.10142900
   0.82654400  0.34691300  0.10142900
   0.67345600  0.31975500  0.20285800
   0.92345600  0.81975500  0.20285800
   0.59691300  0.83333300  0.30428600
   0.84691300  0.33333300  0.30428600
   0.65308800  0.66666700  0.20285800
   0.90308800  0.16666700  0.20285800
   0.67345600  0.01358000  0.20285800
   0.92345600  0.51357900  0.20285800
   0.57654400  0.48642000  0.30428600
   0.82654400  0.98642000  0.30428600
   0.57654400  0.18024500  0.30428600
   0.82654400  0.68024600  0.30428600
   0.00000000  0.66666700  0.14070600
   0.25000000  0.16666700  0.14070600
   0.00000000  0.33333300  0.06215200
   0.25000000  0.83333300  0.06215200
   0.00000000  0.00000000  0.03927700
   0.25000000  0.50000000  0.03927700
   0.00000000  0.66666700  0.26500900
   0.25000000  0.16666700  0.26500900
   0.00000000  0.33333300  0.24213400
   0.25000000  0.83333300  0.24213400
   0.00000000  0.00000000  0.16358100
   0.25000000  0.50000000  0.16358100
   0.50000000  0.66666700  0.14070600
   0.75000000  0.16666700  0.14070600
   0.50000000  0.33333300  0.06215200
   0.75000000  0.83333300  0.06215200
   0.50000000  0.00000000  0.03927700
   0.75000000  0.50000000  0.03927700
   0.50000000  0.66666700  0.26500900
   0.75000000  0.16666700  0.26500900
   0.50000000  0.33333300  0.24213400
   0.75000000  0.83333300  0.24213400
   0.50000000  0.00000000  0.16358100
   0.75000000  0.50000000  0.16358100
 
 position of ions in cartesian coordinates  (Angst):
   1.66776244  8.21368008  0.00000000
   4.07148794  4.05030558  0.00000000
   0.93179938  4.16337450  2.18686888
   3.33553450  0.00000000  2.18686888
   1.47192612  2.77558022  0.00000000
   3.87565162  6.93895472  0.00000000
   1.66776244  5.66423770  0.00000000
   4.07148794  1.50085487  0.00000000
   0.73596306  1.27471702  2.18686888
   3.13968856  5.43809152  2.18686888
   0.73596306  7.05203198  2.18686888
   3.13968856  2.88865748  2.18686888
   1.66776244  2.66251963  4.37373776
   4.07148794  6.82589413  4.37373776
   0.93179938  6.93895472  6.56058508
   3.33553450  2.77558022  6.56058508
   1.47191650  5.55116878  4.37373776
   3.87565162  1.38779428  4.37373776
   1.66776244  0.11307725  4.37373776
   4.07148794  4.27645175  4.37373776
   0.73596306  4.05030558  6.56058508
   3.13968856  8.21367175  6.56058508
   0.73596306  1.50085487  6.56058508
   3.13968856  5.66423770  6.56058508
   6.47521344  8.21368008  0.00000000
   8.87893894  4.05030558  0.00000000
   5.73926000  4.16337450  2.18686888
   8.14298550  0.00000000  2.18686888
   6.27937712  2.77558022  0.00000000
   8.68310262  6.93895472  0.00000000
   6.47521344  5.66422937  0.00000000
   8.87893894  1.50085487  0.00000000
   5.54341406  1.27471702  2.18686888
   7.94713956  5.43809152  2.18686888
   5.54341406  7.05203198  2.18686888
   7.94713956  2.88865748  2.18686888
   6.47521344  2.66251963  4.37373776
   8.87893894  6.82589413  4.37373776
   5.73926000  6.93895472  6.56058508
   8.14298550  2.77558022  6.56058508
   6.27937712  5.55116878  4.37373776
   8.68310262  1.38779428  4.37373776
   6.47521344  0.11307725  4.37373776
   8.87893894  4.27644342  4.37373776
   5.54341406  4.05029725  6.56058508
   7.94713956  8.21367175  6.56058508
   5.54341406  1.50085487  6.56058508
   7.94713956  5.66423770  6.56058508
   0.00000000  5.55116878  3.03370410
   2.40372550  1.38779428  3.03370410
   0.00000000  2.77558022  1.34003367
   2.40372550  6.93895472  1.34003367
   0.00000000  0.00000000  0.84683521
   2.40372550  4.16337450  0.84683521
   0.00000000  5.55116878  5.71374987
   2.40372550  1.38779428  5.71374987
   0.00000000  2.77558022  5.22055141
   2.40372550  6.93895472  5.22055141
   0.00000000  0.00000000  3.52690255
   2.40372550  4.16337450  3.52690255
   4.80745100  5.55116878  3.03370410
   7.21117650  1.38779428  3.03370410
   4.80745100  2.77558022  1.34003367
   7.21117650  6.93895472  1.34003367
   4.80745100  0.00000000  0.84683521
   7.21117650  4.16337450  0.84683521
   4.80745100  5.55116878  5.71374987
   7.21117650  1.38779428  5.71374987
   4.80745100  2.77558022  5.22055141
   7.21117650  6.93895472  5.22055141
   4.80745100  0.00000000  3.52690255
   7.21117650  4.16337450  3.52690255
 


--------------------------------------------------------------------------------------------------------


 k-point   1 :   0.0000 0.0000 0.0000  plane waves:   47839
 k-point   2 :   0.3333 0.0000 0.0000  plane waves:   47902
 k-point   3 :   0.0000 0.2500 0.0000  plane waves:   47799
 k-point   4 :   0.3333 0.2500 0.0000  plane waves:   47841
 k-point   5 :  -0.3333 0.2500 0.0000  plane waves:   47841
 k-point   6 :   0.0000 0.5000 0.0000  plane waves:   47844
 k-point   7 :   0.3333 0.5000 0.0000  plane waves:   47806

 maximum and minimum number of plane-waves per node :     47902    47799

 maximum number of plane-waves:     47902
 maximum index in each direction: 
   IXMAX=   18   IYMAX=   15   IZMAX=   40
   IXMIN=  -18   IYMIN=  -16   IZMIN=  -40


 serial   3D FFT for wavefunctions
 parallel 3D FFT for charge:
    minimum data exchange during FFTs selected (reduces bandwidth)


 total amount of memory used by VASP MPI-rank0   955379. kBytes
=======================================================================

   base      :      30000. kBytes
   nonlr-proj:      18321. kBytes
   fftplans  :     204368. kBytes
   grid      :     365838. kBytes
   one-center:        221. kBytes
   wavefun   :     336631. kBytes
 
     INWAV:  cpu time      0.0002: real time      0.0000
 Broyden mixing: mesh for mixing (old mesh)
   NGX = 37   NGY = 31   NGZ = 81
  (NGX  =144   NGY  =128   NGZ  =324)
  gives a total of  92907 points

 initial charge density was supplied:
 charge density of overlapping atoms calculated
 number of electron     360.0000000 magnetization 
 keeping initial charge density in first step


--------------------------------------------------------------------------------------------------------


 Maximum index for non-local projection operator         3040
 Maximum index for augmentation-charges        16345 (set IRDMAX)


--------------------------------------------------------------------------------------------------------


 First call to EWALD:  gamma=   0.148
 Maximum number of real-space cells 3x 4x 2
 Maximum number of reciprocal cells 2x 2x 5

    FEWALD:  cpu time      0.0134: real time      0.0067


--------------------------------------- Iteration      1(   1)  ---------------------------------------


    POTLOK:  cpu time      8.4894: real time      1.3139
    SETDIJ:  cpu time      0.4324: real time      0.0618
     EDDAV:  cpu time     27.5948: real time      3.9869
       DOS:  cpu time      0.0179: real time      0.0026
    --------------------------------------------
      LOOP:  cpu time     36.5351: real time      5.3653

 eigenvalue-minimisations  :  3126
 total energy-change (2. order) : 0.3431417E+04  (-0.1661839E+05)
 number of electron     360.0000000 magnetization 
 augmentation part      360.0000000 magnetization 

 Free energy of the ion-electron system (eV)
  ---------------------------------------------------
  alpha Z        PSCENC =       226.23369888
  Ewald energy   TEWEN  =     84833.22477648
  -Hartree energ DENC   =   -104444.00622286
  -exchange      EXHF   =         0.00000000
  -V(xc)+E(xc)   XCENC  =       706.36867878
  PAW double counting   =     18223.17866176   -17542.60598086
  entropy T*S    EENTRO =        -0.06947977
  eigenvalues    EBANDS =      -609.03966613
  atomic energy  EATOM  =     22038.13253899
  Solvation  Ediel_sol  =         0.00000000
  ---------------------------------------------------
  free energy    TOTEN  =      3431.41700528 eV

  energy without entropy =     3431.48648504  energy(sigma->0) =     3431.45174516


--------------------------------------------------------------------------------------------------------




--------------------------------------- Iteration      1(   2)  ---------------------------------------


     EDDAV:  cpu time     33.4156: real time      4.7915
       DOS:  cpu time      0.0135: real time      0.0019
    --------------------------------------------
      LOOP:  cpu time     33.4287: real time      4.7933

 eigenvalue-minimisations  :  4058
 total energy-change (2. order) :-0.3415892E+04  (-0.3336220E+04)
 number of electron     360.0000000 magnetization 
 augmentation part      360.0000000 magnetization 

 Free energy of the ion-electron system (eV)
  ---------------------------------------------------
  alpha Z        PSCENC =       226.23369888
  Ewald energy   TEWEN  =     84833.22477648
  -Hartree energ DENC   =   -104444.00622286
  -exchange      EXHF   =         0.00000000
  -V(xc)+E(xc)   XCENC  =       706.36867878
  PAW double counting   =     18223.17866176   -17542.60598086
  entropy T*S    EENTRO =        -0.12510119
  eigenvalues    EBANDS =     -4024.87603128
  atomic energy  EATOM  =     22038.13253899
  Solvation  Ediel_sol  =         0.00000000
  ---------------------------------------------------
  free energy    TOTEN  =        15.52501871 eV

  energy without entropy =       15.65011989  energy(sigma->0) =       15.58756930


--------------------------------------------------------------------------------------------------------




--------------------------------------- Iteration      1(   3)  ---------------------------------------


     EDDAV:  cpu time     29.0071: real time      4.1549
       DOS:  cpu time      0.0136: real time      0.0019
    --------------------------------------------
      LOOP:  cpu time     29.0206: real time      4.1568

 eigenvalue-minimisations  :  3380
 total energy-change (2. order) :-0.5027064E+03  (-0.4902880E+03)
 number of electron     360.0000000 magnetization 
 augmentation part      360.0000000 magnetization 

 Free energy of the ion-electron system (eV)
  ---------------------------------------------------
  alpha Z        PSCENC =       226.23369888
  Ewald energy   TEWEN  =     84833.22477648
  -Hartree energ DENC   =   -104444.00622286
  -exchange      EXHF   =         0.00000000
  -V(xc)+E(xc)   XCENC  =       706.36867878
  PAW double counting   =     18223.17866176   -17542.60598086
  entropy T*S    EENTRO =        -0.24053104
  eigenvalues    EBANDS =     -4527.46700076
  atomic energy  EATOM  =     22038.13253899
  Solvation  Ediel_sol  =         0.00000000
  ---------------------------------------------------
  free energy    TOTEN  =      -487.18138063 eV

  energy without entropy =     -486.94084959  energy(sigma->0) =     -487.06111511


--------------------------------------------------------------------------------------------------------




--------------------------------------- Iteration      1(   4)  ---------------------------------------


     EDDAV:  cpu time     29.6476: real time      4.2508
       DOS:  cpu time      0.0283: real time      0.0044
    --------------------------------------------
      LOOP:  cpu time     29.6759: real time      4.2552

 eigenvalue-minimisations  :  3412
 total energy-change (2. order) :-0.1489508E+02  (-0.1480687E+02)
 number of electron     360.0000000 magnetization 
 augmentation part      360.0000000 magnetization 

 Free energy of the ion-electron system (eV)
  ---------------------------------------------------
  alpha Z        PSCENC =       226.23369888
  Ewald energy   TEWEN  =     84833.22477648
  -Hartree energ DENC   =   -104444.00622286
  -exchange      EXHF   =         0.00000000
  -V(xc)+E(xc)   XCENC  =       706.36867878
  PAW double counting   =     18223.17866176   -17542.60598086
  entropy T*S    EENTRO =        -0.23829568
  eigenvalues    EBANDS =     -4542.36431911
  atomic energy  EATOM  =     22038.13253899
  Solvation  Ediel_sol  =         0.00000000
  ---------------------------------------------------
  free energy    TOTEN  =      -502.07646362 eV

  energy without entropy =     -501.83816794  energy(sigma->0) =     -501.95731578


--------------------------------------------------------------------------------------------------------




--------------------------------------- Iteration      1(   5)  ---------------------------------------


     EDDAV:  cpu time     29.7956: real time      4.2814
       DOS:  cpu time      0.0131: real time      0.0019
    CHARGE:  cpu time      1.9224: real time      0.2756
    MIXING:  cpu time      0.5324: real time      0.0798
    --------------------------------------------
      LOOP:  cpu time     32.2641: real time      4.6388

 eigenvalue-minimisations  :  3508
 total energy-change (2. order) :-0.4477047E+00  (-0.4468457E+00)
 number of electron     359.9999828 magnetization 
 augmentation part       33.4369416 magnetization 

 Broyden mixing:
  rms(total) = 0.41533E+01    rms(broyden)= 0.41509E+01
  rms(prec ) = 0.44291E+01
  weight for this iteration     100.00

 Free energy of the ion-electron system (eV)
  ---------------------------------------------------
  alpha Z        PSCENC =       226.23369888
  Ewald energy   TEWEN  =     84833.22477648
  -Hartree energ DENC   =   -104444.00622286
  -exchange      EXHF   =         0.00000000
  -V(xc)+E(xc)   XCENC  =       706.36867878
  PAW double counting   =     18223.17866176   -17542.60598086
  entropy T*S    EENTRO =        -0.23845076
  eigenvalues    EBANDS =     -4542.81186872
  atomic energy  EATOM  =     22038.13253899
  Solvation  Ediel_sol  =         0.00000000
  ---------------------------------------------------
  free energy    TOTEN  =      -502.52416831 eV

  energy without entropy =     -502.28571755  energy(sigma->0) =     -502.40494293


--------------------------------------------------------------------------------------------------------




--------------------------------------- Iteration      1(   6)  ---------------------------------------


    POTLOK:  cpu time      8.3638: real time      1.2821
    SETDIJ:  cpu time      0.4345: real time      0.0621
    EDDIAG:  cpu time      2.0491: real time      0.2934
  RMM-DIIS:  cpu time      3.9787: real time      1.5638
    ORTHCH:  cpu time      0.1047: real time      0.0526
       DOS:  cpu time      0.0076: real time      0.0038
    CHARGE:  cpu time      1.0516: real time      0.2446
    MIXING:  cpu time      0.5064: real time      0.0724
    --------------------------------------------
      LOOP:  cpu time     16.4964: real time      3.5748

 eigenvalue-minimisations  :  3038
 total energy-change (2. order) : 0.4014818E+02  (-0.1663817E+02)
 number of electron     359.9999841 magnetization 
 augmentation part       29.9403885 magnetization 

 Broyden mixing:
  rms(total) = 0.15127E+01    rms(broyden)= 0.15117E+01
  rms(prec ) = 0.15874E+01
  weight for this iteration     100.00

 eigenvalues of (default mixing * dielectric matrix)
  average eigenvalue GAMMA=   0.9761
  0.9761

 Free energy of the ion-electron system (eV)
  ---------------------------------------------------
  alpha Z        PSCENC =       226.23369888
  Ewald energy   TEWEN  =     84833.22477648
  -Hartree energ DENC   =   -104988.09447122
  -exchange      EXHF   =         0.00000000
  -V(xc)+E(xc)   XCENC  =       744.42889170
  PAW double counting   =     22009.75779666   -21339.49075359
  entropy T*S    EENTRO =        -0.29134266
  eigenvalues    EBANDS =     -3986.27712818
  atomic energy  EATOM  =     22038.13253899
  Solvation  Ediel_sol  =         0.00000000
  ---------------------------------------------------
  free energy    TOTEN  =      -462.37599294 eV

  energy without entropy =     -462.08465028  energy(sigma->0) =     -462.23032161


--------------------------------------------------------------------------------------------------------




--------------------------------------- Iteration      1(   7)  ---------------------------------------


    POTLOK:  cpu time      8.2693: real time      1.2532
    SETDIJ:  cpu time      0.4807: real time      0.0687
    EDDIAG:  cpu time      2.0387: real time      0.2919
  RMM-DIIS:  cpu time      3.9858: real time      1.5686
    ORTHCH:  cpu time      0.1069: real time      0.0542
       DOS:  cpu time      0.0040: real time      0.0020
    CHARGE:  cpu time      1.0500: real time      0.2449
    MIXING:  cpu time      0.5019: real time      0.0717
    --------------------------------------------
      LOOP:  cpu time     16.4372: real time      3.5553

 eigenvalue-minimisations  :  3038
 total energy-change (2. order) :-0.4988497E+00  (-0.1750246E+01)
 number of electron     359.9999850 magnetization 
 augmentation part       29.3280707 magnetization 

 Broyden mixing:
  rms(total) = 0.10092E+01    rms(broyden)= 0.10086E+01
  rms(prec ) = 0.10535E+01
  weight for this iteration     100.00

 eigenvalues of (default mixing * dielectric matrix)
  average eigenvalue GAMMA=   0.9690
  1.1543  0.7836

 Free energy of the ion-electron system (eV)
  ---------------------------------------------------
  alpha Z        PSCENC =       226.23369888
  Ewald energy   TEWEN  =     84833.22477648
  -Hartree energ DENC   =   -105062.78333368
  -exchange      EXHF   =         0.00000000
  -V(xc)+E(xc)   XCENC  =       751.56541710
  PAW double counting   =     24382.45298595   -23712.54066311
  entropy T*S    EENTRO =        -0.23807206
  eigenvalues    EBANDS =     -3918.92219118
  atomic energy  EATOM  =     22038.13253899
  Solvation  Ediel_sol  =         0.00000000
  ---------------------------------------------------
  free energy    TOTEN  =      -462.87484263 eV

  energy without entropy =     -462.63677057  energy(sigma->0) =     -462.75580660


--------------------------------------------------------------------------------------------------------




--------------------------------------- Iteration      1(   8)  ---------------------------------------


    POTLOK:  cpu time      8.2632: real time      1.2514
    SETDIJ:  cpu time      0.4402: real time      0.0629
    EDDIAG:  cpu time      2.0396: real time      0.2918
  RMM-DIIS:  cpu time      3.9792: real time      1.5639
    ORTHCH:  cpu time      0.1067: real time      0.0540
       DOS:  cpu time      0.0052: real time      0.0026
    CHARGE:  cpu time      1.0491: real time      0.2446
    MIXING:  cpu time      0.5138: real time      0.0734
    --------------------------------------------
      LOOP:  cpu time     16.3969: real time      3.5446

 eigenvalue-minimisations  :  3038
 total energy-change (2. order) : 0.2688249E+00  (-0.3288917E+00)
 number of electron     359.9999847 magnetization 
 augmentation part       29.1450832 magnetization 

 Broyden mixing:
  rms(total) = 0.71657E+00    rms(broyden)= 0.71619E+00
  rms(prec ) = 0.75773E+00
  weight for this iteration     100.00

 eigenvalues of (default mixing * dielectric matrix)
  average eigenvalue GAMMA=   1.0557
  1.2994  1.2994  0.5682

 Free energy of the ion-electron system (eV)
  ---------------------------------------------------
  alpha Z        PSCENC =       226.23369888
  Ewald energy   TEWEN  =     84833.22477648
  -Hartree energ DENC   =   -105085.86919037
  -exchange      EXHF   =         0.00000000
  -V(xc)+E(xc)   XCENC  =       753.02420170
  PAW double counting   =     25861.08483400   -25190.71358028
  entropy T*S    EENTRO =        -0.29454671
  eigenvalues    EBANDS =     -3897.42875042
  atomic energy  EATOM  =     22038.13253899
  Solvation  Ediel_sol  =         0.00000000
  ---------------------------------------------------
  free energy    TOTEN  =      -462.60601774 eV

  energy without entropy =     -462.31147103  energy(sigma->0) =     -462.45874439


--------------------------------------------------------------------------------------------------------




--------------------------------------- Iteration      1(   9)  ---------------------------------------


    POTLOK:  cpu time      8.3214: real time      1.2597
    SETDIJ:  cpu time      0.5065: real time      0.0724
    EDDIAG:  cpu time      2.0507: real time      0.2934
  RMM-DIIS:  cpu time      3.9949: real time      1.5639
    ORTHCH:  cpu time      0.1047: real time      0.0526
       DOS:  cpu time      0.0076: real time      0.0038
    CHARGE:  cpu time      1.1103: real time      0.2580
    MIXING:  cpu time      0.5208: real time      0.0747
    --------------------------------------------
      LOOP:  cpu time     16.6170: real time      3.5784

 eigenvalue-minimisations  :  3039
 total energy-change (2. order) :-0.3427093E+01  (-0.2434555E+00)
 number of electron     359.9999848 magnetization 
 augmentation part       29.3164787 magnetization 

 Broyden mixing:
  rms(total) = 0.25804E+01    rms(broyden)= 0.25786E+01
  rms(prec ) = 0.28983E+01
  weight for this iteration     100.00

 eigenvalues of (default mixing * dielectric matrix)
  average eigenvalue GAMMA=   1.0083
  2.0075  1.2778  0.6093  0.1388

 Free energy of the ion-electron system (eV)
  ---------------------------------------------------
  alpha Z        PSCENC =       226.23369888
  Ewald energy   TEWEN  =     84833.22477648
  -Hartree energ DENC   =   -105082.79160157
  -exchange      EXHF   =         0.00000000
  -V(xc)+E(xc)   XCENC  =       752.90208175
  PAW double counting   =     26852.67972093   -26181.64833427
  entropy T*S    EENTRO =        -0.26865429
  eigenvalues    EBANDS =     -3904.49733774
  atomic energy  EATOM  =     22038.13253899
  Solvation  Ediel_sol  =         0.00000000
  ---------------------------------------------------
  free energy    TOTEN  =      -466.03311084 eV

  energy without entropy =     -465.76445655  energy(sigma->0) =     -465.89878370


--------------------------------------------------------------------------------------------------------




--------------------------------------- Iteration      1(  10)  ---------------------------------------


    POTLOK:  cpu time      8.2856: real time      1.2576
    SETDIJ:  cpu time      1.1218: real time      0.1603
    EDDIAG:  cpu time      1.7410: real time      0.2914
  RMM-DIIS:  cpu time      4.0630: real time      1.6022
    ORTHCH:  cpu time      0.1068: real time      0.0542
       DOS:  cpu time      0.0049: real time      0.0024
    CHARGE:  cpu time      1.0516: real time      0.2449
    MIXING:  cpu time      0.5338: real time      0.0763
    --------------------------------------------
      LOOP:  cpu time     16.9084: real time      3.6894

 eigenvalue-minimisations  :  3048
 total energy-change (2. order) : 0.3407903E+01  (-0.1194581E+00)
 number of electron     359.9999845 magnetization 
 augmentation part       29.2615623 magnetization 

 Broyden mixing:
  rms(total) = 0.65006E+00    rms(broyden)= 0.64653E+00
  rms(prec ) = 0.74870E+00
  weight for this iteration     100.00

 eigenvalues of (default mixing * dielectric matrix)
  average eigenvalue GAMMA=   0.8510
  2.0626  1.2672  0.6006  0.1851  0.1393

 Free energy of the ion-electron system (eV)
  ---------------------------------------------------
  alpha Z        PSCENC =       226.23369888
  Ewald energy   TEWEN  =     84833.22477648
  -Hartree energ DENC   =   -105082.71399808
  -exchange      EXHF   =         0.00000000
  -V(xc)+E(xc)   XCENC  =       753.04680505
  PAW double counting   =     27661.71592594   -26990.21142750
  entropy T*S    EENTRO =        -0.30272826
  eigenvalues    EBANDS =     -3901.75079982
  atomic energy  EATOM  =     22038.13253899
  Solvation  Ediel_sol  =         0.00000000
  ---------------------------------------------------
  free energy    TOTEN  =      -462.62520831 eV

  energy without entropy =     -462.32248005  energy(sigma->0) =     -462.47384418


--------------------------------------------------------------------------------------------------------




--------------------------------------- Iteration      1(  11)  ---------------------------------------


    POTLOK:  cpu time      8.3258: real time      1.2624
    SETDIJ:  cpu time      0.5272: real time      0.0753
    EDDIAG:  cpu time      2.0419: real time      0.2921
  RMM-DIIS:  cpu time      3.9906: real time      1.5684
    ORTHCH:  cpu time      0.1067: real time      0.0540
       DOS:  cpu time      0.0052: real time      0.0026
    CHARGE:  cpu time      1.0494: real time      0.2448
    MIXING:  cpu time      0.5467: real time      0.0784
    --------------------------------------------
      LOOP:  cpu time     16.5935: real time      3.5780

 eigenvalue-minimisations  :  3038
 total energy-change (2. order) : 0.2823613E-01  (-0.2630274E-01)
 number of electron     359.9999848 magnetization 
 augmentation part       29.2705851 magnetization 

 Broyden mixing:
  rms(total) = 0.34946E+00    rms(broyden)= 0.34776E+00
  rms(prec ) = 0.42665E+00
  weight for this iteration     100.00

 eigenvalues of (default mixing * dielectric matrix)
  average eigenvalue GAMMA=   0.8181
  2.2010  1.2211  0.6150  0.6150  0.1342  0.1225

 Free energy of the ion-electron system (eV)
  ---------------------------------------------------
  alpha Z        PSCENC =       226.23369888
  Ewald energy   TEWEN  =     84833.22477648
  -Hartree energ DENC   =   -105084.73566211
  -exchange      EXHF   =         0.00000000
  -V(xc)+E(xc)   XCENC  =       753.16674037
  PAW double counting   =     27715.28027515   -27043.77166154
  entropy T*S    EENTRO =        -0.30553735
  eigenvalues    EBANDS =     -3899.82214105
  atomic energy  EATOM  =     22038.13253899
  Solvation  Ediel_sol  =         0.00000000
  ---------------------------------------------------
  free energy    TOTEN  =      -462.59697218 eV

  energy without entropy =     -462.29143484  energy(sigma->0) =     -462.44420351


--------------------------------------------------------------------------------------------------------




--------------------------------------- Iteration      1(  12)  ---------------------------------------


    POTLOK:  cpu time      8.4780: real time      1.2931
    SETDIJ:  cpu time      0.4304: real time      0.0617
    EDDIAG:  cpu time      2.0363: real time      0.2918
  RMM-DIIS:  cpu time      4.0802: real time      1.6111
    ORTHCH:  cpu time      0.1068: real time      0.0540
       DOS:  cpu time      0.0053: real time      0.0026
    CHARGE:  cpu time      1.0569: real time      0.2457
    MIXING:  cpu time      0.5994: real time      0.0856
    --------------------------------------------
      LOOP:  cpu time     16.7933: real time      3.6457

 eigenvalue-minimisations  :  3050
 total energy-change (2. order) :-0.5086210E-01  (-0.9593231E-02)
 number of electron     359.9999849 magnetization 
 augmentation part       29.2646430 magnetization 

 Broyden mixing:
  rms(total) = 0.47096E+00    rms(broyden)= 0.47063E+00
  rms(prec ) = 0.60416E+00
  weight for this iteration     100.00

 eigenvalues of (default mixing * dielectric matrix)
  average eigenvalue GAMMA=   0.7249
  2.2235  1.2112  0.6343  0.6343  0.1341  0.1341  0.1031

 Free energy of the ion-electron system (eV)
  ---------------------------------------------------
  alpha Z        PSCENC =       226.23369888
  Ewald energy   TEWEN  =     84833.22477648
  -Hartree energ DENC   =   -105091.83770695
  -exchange      EXHF   =         0.00000000
  -V(xc)+E(xc)   XCENC  =       753.69141009
  PAW double counting   =     27798.97369476   -27127.50492924
  entropy T*S    EENTRO =        -0.30216857
  eigenvalues    EBANDS =     -3893.25914871
  atomic energy  EATOM  =     22038.13253899
  Solvation  Ediel_sol  =         0.00000000
  ---------------------------------------------------
  free energy    TOTEN  =      -462.64783428 eV

  energy without entropy =     -462.34566571  energy(sigma->0) =     -462.49675000


--------------------------------------------------------------------------------------------------------




--------------------------------------- Iteration      1(  13)  ---------------------------------------


    POTLOK:  cpu time      8.3061: real time      1.2597
    SETDIJ:  cpu time      0.5435: real time      0.0778
    EDDIAG:  cpu time      2.0396: real time      0.2918
  RMM-DIIS:  cpu time      4.1367: real time      1.6431
    ORTHCH:  cpu time      0.1064: real time      0.0539
       DOS:  cpu time      0.0054: real time      0.0027
    CHARGE:  cpu time      1.0601: real time      0.2460
    MIXING:  cpu time      0.5744: real time      0.0821
    --------------------------------------------
      LOOP:  cpu time     16.7723: real time      3.6570

 eigenvalue-minimisations  :  3097
 total energy-change (2. order) : 0.1006985E+00  (-0.3244052E-02)
 number of electron     359.9999848 magnetization 
 augmentation part       29.2527927 magnetization 

 Broyden mixing:
  rms(total) = 0.10008E+00    rms(broyden)= 0.99272E-01
  rms(prec ) = 0.11219E+00
  weight for this iteration     100.00

 eigenvalues of (default mixing * dielectric matrix)
  average eigenvalue GAMMA=   0.7499
  2.2245  1.2018  0.7831  0.7831  0.6443  0.1340  0.1340  0.0941

 Free energy of the ion-electron system (eV)
  ---------------------------------------------------
  alpha Z        PSCENC =       226.23369888
  Ewald energy   TEWEN  =     84833.22477648
  -Hartree energ DENC   =   -105094.03683455
  -exchange      EXHF   =         0.00000000
  -V(xc)+E(xc)   XCENC  =       753.84128021
  PAW double counting   =     27808.35217758   -27136.90072683
  entropy T*S    EENTRO =        -0.30226926
  eigenvalues    EBANDS =     -3891.09177727
  atomic energy  EATOM  =     22038.13253899
  Solvation  Ediel_sol  =         0.00000000
  ---------------------------------------------------
  free energy    TOTEN  =      -462.54713576 eV

  energy without entropy =     -462.24486650  energy(sigma->0) =     -462.39600113


--------------------------------------------------------------------------------------------------------




--------------------------------------- Iteration      1(  14)  ---------------------------------------


    POTLOK:  cpu time      8.3385: real time      1.2647
    SETDIJ:  cpu time      0.5865: real time      0.0838
    EDDIAG:  cpu time      2.0269: real time      0.2901
  RMM-DIIS:  cpu time      4.0582: real time      1.5992
    ORTHCH:  cpu time      0.1068: real time      0.0542
       DOS:  cpu time      0.0044: real time      0.0022
    CHARGE:  cpu time      1.0499: real time      0.2445
    MIXING:  cpu time      0.5908: real time      0.0844
    --------------------------------------------
      LOOP:  cpu time     16.7621: real time      3.6231

 eigenvalue-minimisations  :  3062
 total energy-change (2. order) :-0.1462127E-01  (-0.2265811E-02)
 number of electron     359.9999848 magnetization 
 augmentation part       29.2321251 magnetization 

 Broyden mixing:
  rms(total) = 0.13213E+00    rms(broyden)= 0.13205E+00
  rms(prec ) = 0.14788E+00
  weight for this iteration     100.00

 eigenvalues of (default mixing * dielectric matrix)
  average eigenvalue GAMMA=   0.7508
  2.2220  1.1769  1.0580  1.0580  0.6937  0.1856  0.1348  0.1348  0.0936

 Free energy of the ion-electron system (eV)
  ---------------------------------------------------
  alpha Z        PSCENC =       226.23369888
  Ewald energy   TEWEN  =     84833.22477648
  -Hartree energ DENC   =   -105100.27770246
  -exchange      EXHF   =         0.00000000
  -V(xc)+E(xc)   XCENC  =       754.17595660
  PAW double counting   =     27754.60424515   -27083.21346779
  entropy T*S    EENTRO =        -0.30257475
  eigenvalues    EBANDS =     -3885.13922813
  atomic energy  EATOM  =     22038.13253899
  Solvation  Ediel_sol  =         0.00000000
  ---------------------------------------------------
  free energy    TOTEN  =      -462.56175703 eV

  energy without entropy =     -462.25918228  energy(sigma->0) =     -462.41046965


--------------------------------------------------------------------------------------------------------




--------------------------------------- Iteration      1(  15)  ---------------------------------------


    POTLOK:  cpu time      8.3316: real time      1.2637
    SETDIJ:  cpu time      0.6063: real time      0.0867
    EDDIAG:  cpu time      2.0249: real time      0.2898
  RMM-DIIS:  cpu time      4.2066: real time      1.6732
    ORTHCH:  cpu time      0.1065: real time      0.0540
       DOS:  cpu time      0.0052: real time      0.0026
    CHARGE:  cpu time      1.0521: real time      0.2448
    MIXING:  cpu time      0.6177: real time      0.0883
    --------------------------------------------
      LOOP:  cpu time     16.9510: real time      3.7032

 eigenvalue-minimisations  :  3178
 total energy-change (2. order) : 0.7858138E-02  (-0.2087494E-02)
 number of electron     359.9999848 magnetization 
 augmentation part       29.2052897 magnetization 

 Broyden mixing:
  rms(total) = 0.96931E-01    rms(broyden)= 0.96776E-01
  rms(prec ) = 0.10706E+00
  weight for this iteration     100.00

 eigenvalues of (default mixing * dielectric matrix)
  average eigenvalue GAMMA=   0.7528
  2.2014  1.7104  1.0727  0.9291  0.7043  0.3938  0.1555  0.1333  0.1333  0.0939

 Free energy of the ion-electron system (eV)
  ---------------------------------------------------
  alpha Z        PSCENC =       226.23369888
  Ewald energy   TEWEN  =     84833.22477648
  -Hartree energ DENC   =   -105107.11540430
  -exchange      EXHF   =         0.00000000
  -V(xc)+E(xc)   XCENC  =       754.52121311
  PAW double counting   =     27687.68000231   -27016.34598899
  entropy T*S    EENTRO =        -0.30231598
  eigenvalues    EBANDS =     -3878.58241939
  atomic energy  EATOM  =     22038.13253899
  Solvation  Ediel_sol  =         0.00000000
  ---------------------------------------------------
  free energy    TOTEN  =      -462.55389889 eV

  energy without entropy =     -462.25158291  energy(sigma->0) =     -462.40274090


--------------------------------------------------------------------------------------------------------




--------------------------------------- Iteration      1(  16)  ---------------------------------------


    POTLOK:  cpu time      8.3756: real time      1.2707
    SETDIJ:  cpu time      0.5665: real time      0.0810
    EDDIAG:  cpu time      2.0359: real time      0.2915
  RMM-DIIS:  cpu time      3.9470: real time      1.5500
    ORTHCH:  cpu time      0.1067: real time      0.0543
       DOS:  cpu time      0.0053: real time      0.0026
    CHARGE:  cpu time      1.0518: real time      0.2447
    MIXING:  cpu time      0.6389: real time      0.0913
    --------------------------------------------
      LOOP:  cpu time     16.7277: real time      3.5860

 eigenvalue-minimisations  :  3045
 total energy-change (2. order) :-0.3915477E-02  (-0.8401096E-03)
 number of electron     359.9999848 magnetization 
 augmentation part       29.1974007 magnetization 

 Broyden mixing:
  rms(total) = 0.10960E+00    rms(broyden)= 0.10949E+00
  rms(prec ) = 0.12256E+00
  weight for this iteration     100.00

 eigenvalues of (default mixing * dielectric matrix)
  average eigenvalue GAMMA=   0.7986
  2.3934  2.3270  0.9611  0.8558  0.8558  0.7109  0.1892  0.0938  0.1352  0.1352
  0.1274

 Free energy of the ion-electron system (eV)
  ---------------------------------------------------
  alpha Z        PSCENC =       226.23369888
  Ewald energy   TEWEN  =     84833.22477648
  -Hartree energ DENC   =   -105110.34495996
  -exchange      EXHF   =         0.00000000
  -V(xc)+E(xc)   XCENC  =       754.63323897
  PAW double counting   =     27642.83744257   -26971.50735135
  entropy T*S    EENTRO =        -0.30261601
  eigenvalues    EBANDS =     -3875.46458293
  atomic energy  EATOM  =     22038.13253899
  Solvation  Ediel_sol  =         0.00000000
  ---------------------------------------------------
  free energy    TOTEN  =      -462.55781436 eV

  energy without entropy =     -462.25519836  energy(sigma->0) =     -462.40650636


--------------------------------------------------------------------------------------------------------




--------------------------------------- Iteration      1(  17)  ---------------------------------------


    POTLOK:  cpu time      8.3513: real time      1.2673
    SETDIJ:  cpu time      0.5808: real time      0.0830
    EDDIAG:  cpu time      2.0292: real time      0.2904
  RMM-DIIS:  cpu time      3.7268: real time      1.4258
    ORTHCH:  cpu time      0.1046: real time      0.0526
       DOS:  cpu time      0.0038: real time      0.0019
    CHARGE:  cpu time      1.0526: real time      0.2447
    MIXING:  cpu time      0.6653: real time      0.0954
    --------------------------------------------
      LOOP:  cpu time     16.5145: real time      3.4613

 eigenvalue-minimisations  :  3038
 total energy-change (2. order) : 0.5193985E-02  (-0.3711080E-03)
 number of electron     359.9999848 magnetization 
 augmentation part       29.1972711 magnetization 

 Broyden mixing:
  rms(total) = 0.55100E-01    rms(broyden)= 0.55000E-01
  rms(prec ) = 0.63219E-01
  weight for this iteration     100.00

 eigenvalues of (default mixing * dielectric matrix)
  average eigenvalue GAMMA=   0.7698
  2.5805  2.2739  1.0320  0.8441  0.8441  0.6812  0.3090  0.1860  0.0938  0.1336
  0.1336  0.1259

 Free energy of the ion-electron system (eV)
  ---------------------------------------------------
  alpha Z        PSCENC =       226.23369888
  Ewald energy   TEWEN  =     84833.22477648
  -Hartree energ DENC   =   -105113.85706361
  -exchange      EXHF   =         0.00000000
  -V(xc)+E(xc)   XCENC  =       754.68054976
  PAW double counting   =     27581.54359237   -26910.18555690
  entropy T*S    EENTRO =        -0.30261762
  eigenvalues    EBANDS =     -3872.02253873
  atomic energy  EATOM  =     22038.13253899
  Solvation  Ediel_sol  =         0.00000000
  ---------------------------------------------------
  free energy    TOTEN  =      -462.55262038 eV

  energy without entropy =     -462.25000276  energy(sigma->0) =     -462.40131157


--------------------------------------------------------------------------------------------------------




--------------------------------------- Iteration      1(  18)  ---------------------------------------


    POTLOK:  cpu time      8.4260: real time      1.2850
    SETDIJ:  cpu time      0.4397: real time      0.0632
    EDDIAG:  cpu time      2.0136: real time      0.2901
  RMM-DIIS:  cpu time      3.6646: real time      1.3990
    ORTHCH:  cpu time      0.1046: real time      0.0526
       DOS:  cpu time      0.0041: real time      0.0020
    CHARGE:  cpu time      1.0387: real time      0.2425
    MIXING:  cpu time      0.6900: real time      0.0995
    --------------------------------------------
      LOOP:  cpu time     16.3812: real time      3.4339

 eigenvalue-minimisations  :  2872
 total energy-change (2. order) : 0.6770518E-03  (-0.1386332E-03)
 number of electron     359.9999848 magnetization 
 augmentation part       29.1980439 magnetization 

 Broyden mixing:
  rms(total) = 0.37855E-01    rms(broyden)= 0.37825E-01
  rms(prec ) = 0.44977E-01
  weight for this iteration     100.00

 eigenvalues of (default mixing * dielectric matrix)
  average eigenvalue GAMMA=   0.7808
  2.6635  2.2758  1.1347  0.9494  0.9494  0.6572  0.6572  0.2051  0.1706  0.0938
  0.1342  0.1342  0.1255

 Free energy of the ion-electron system (eV)
  ---------------------------------------------------
  alpha Z        PSCENC =       226.23369888
  Ewald energy   TEWEN  =     84833.22477648
  -Hartree energ DENC   =   -105114.73202347
  -exchange      EXHF   =         0.00000000
  -V(xc)+E(xc)   XCENC  =       754.67579434
  PAW double counting   =     27571.91764823   -26900.55106436
  entropy T*S    EENTRO =        -0.30238902
  eigenvalues    EBANDS =     -3871.15092341
  atomic energy  EATOM  =     22038.13253899
  Solvation  Ediel_sol  =         0.00000000
  ---------------------------------------------------
  free energy    TOTEN  =      -462.55194333 eV

  energy without entropy =     -462.24955431  energy(sigma->0) =     -462.40074882


--------------------------------------------------------------------------------------------------------




--------------------------------------- Iteration      1(  19)  ---------------------------------------


    POTLOK:  cpu time      8.4490: real time      1.2871
    SETDIJ:  cpu time      0.4344: real time      0.0623
    EDDIAG:  cpu time      2.0631: real time      0.2961
  RMM-DIIS:  cpu time      3.7998: real time      1.4864
    ORTHCH:  cpu time      0.1068: real time      0.0542
       DOS:  cpu time      0.0051: real time      0.0026
    CHARGE:  cpu time      1.0512: real time      0.2447
    MIXING:  cpu time      0.7231: real time      0.1034
    --------------------------------------------
      LOOP:  cpu time     16.6325: real time      3.5367

 eigenvalue-minimisations  :  2773
 total energy-change (2. order) : 0.5295543E-03  (-0.6523789E-04)
 number of electron     359.9999848 magnetization 
 augmentation part       29.2006140 magnetization 

 Broyden mixing:
  rms(total) = 0.27495E-01    rms(broyden)= 0.27468E-01
  rms(prec ) = 0.34553E-01
  weight for this iteration     100.00

 eigenvalues of (default mixing * dielectric matrix)
  average eigenvalue GAMMA=   0.7420
  2.6693  2.2863  1.1453  0.9720  0.9720  0.6568  0.6568  0.2110  0.1768  0.0938
  0.1544  0.1339  0.1339  0.1254

 Free energy of the ion-electron system (eV)
  ---------------------------------------------------
  alpha Z        PSCENC =       226.23369888
  Ewald energy   TEWEN  =     84833.22477648
  -Hartree energ DENC   =   -105116.17992431
  -exchange      EXHF   =         0.00000000
  -V(xc)+E(xc)   XCENC  =       754.65425467
  PAW double counting   =     27564.21245849   -26892.83382467
  entropy T*S    EENTRO =        -0.30219566
  eigenvalues    EBANDS =     -3869.69319665
  atomic energy  EATOM  =     22038.13253899
  Solvation  Ediel_sol  =         0.00000000
  ---------------------------------------------------
  free energy    TOTEN  =      -462.55141377 eV

  energy without entropy =     -462.24921812  energy(sigma->0) =     -462.40031594


--------------------------------------------------------------------------------------------------------




--------------------------------------- Iteration      1(  20)  ---------------------------------------


    POTLOK:  cpu time      8.3187: real time      1.2670
    SETDIJ:  cpu time      0.6991: real time      0.1003
    EDDIAG:  cpu time      2.1291: real time      0.3060
  RMM-DIIS:  cpu time      2.8068: real time      1.0132
    ORTHCH:  cpu time      0.1046: real time      0.0526
       DOS:  cpu time      0.0082: real time      0.0041
    CHARGE:  cpu time      1.0650: real time      0.2471
    MIXING:  cpu time      0.8364: real time      0.1201
    --------------------------------------------
      LOOP:  cpu time     15.9679: real time      3.1103

 eigenvalue-minimisations  :  1880
 total energy-change (2. order) : 0.2016273E-03  (-0.2098776E-04)
 number of electron     359.9999848 magnetization 
 augmentation part       29.2020283 magnetization 

 Broyden mixing:
  rms(total) = 0.14600E-01    rms(broyden)= 0.14582E-01
  rms(prec ) = 0.21792E-01
  weight for this iteration     100.00

 eigenvalues of (default mixing * dielectric matrix)
  average eigenvalue GAMMA=   0.7787
  2.6893  2.3999  1.1412  1.1412  1.1737  0.7309  0.7309  0.6711  0.2073  0.1735
  0.0938  0.1342  0.1342  0.1254  0.1330

 Free energy of the ion-electron system (eV)
  ---------------------------------------------------
  alpha Z        PSCENC =       226.23369888
  Ewald energy   TEWEN  =     84833.22477648
  -Hartree energ DENC   =   -105116.65256159
  -exchange      EXHF   =         0.00000000
  -V(xc)+E(xc)   XCENC  =       754.64965728
  PAW double counting   =     27561.96269577   -26890.58167918
  entropy T*S    EENTRO =        -0.30208813
  eigenvalues    EBANDS =     -3869.21825065
  atomic energy  EATOM  =     22038.13253899
  Solvation  Ediel_sol  =         0.00000000
  ---------------------------------------------------
  free energy    TOTEN  =      -462.55121215 eV

[...]
  227          m_sumb_d                              0.606832                         39   4
  228        fordep                                9.374151                           39   3
  229          setdij_                               9.372328                        234   4
  230        setdij_                              31.252844                          780   3
  231        set_dd_magatom                        0.000190                           39   3
  232        set_dd_paw                            0.850462                           39   3
  233          m_sumb_d                              0.023096                        273   4
  234        strkin                                0.792525                           39   3
  235          m_sumb_d                              0.034563                         39   4
  236        strelo                                0.683138                           39   3
  237        strnlr                               77.686580                           39   3
  238          rspher_all                           11.003605                        351   4
  239          phaser                                7.586104                        702   4
  240          rpro_isp                             55.955948                        702   4
  241            fftwav_mpi                            4.046736                   152334   5
  242              fftwav                                3.833959                 152334   6
  243                fft3d                                 2.602217               152334   7
  244            rpromu_acc                           51.308223                    38610   5
  245          m_sumb_d                              1.934755                        351   4
  246        fft3d_mpi                            15.119174                          429   3
  247          fftbrc_mpi                           12.233138                        429   4
  248            fftbas_plan_mpi                      12.232374                      429   5
  249              dfftw_execute                         7.594719                   1287   6
  250              map_forward                           2.081404                    390   6
  251                map_scatter                           1.196832                  195   7
  252              map_backward                          2.486071                    468   6
  253                map_gather                            1.664116                  234   7
  254        ggaall_grid                           8.332531                           39   3
  255        forhar                               11.747818                           78   3
  256        strehar                               0.405375                           39   3
  257        chggra                                0.705242                           39   3
  258          fft3d_mpi                             0.385019                        117   4
  259            fftbrc_mpi                            0.301407                      117   5
  260              fftbas_plan_mpi                       0.301312                    117   6
  261                map_forward                           0.000937                  156   7
  262                  map_scatter                           0.000273                 78   8
  263                map_backward                          0.000457                   78   7
  264                  map_gather                            0.000147                 39   8
  265          pothar                                0.042942                         39   4
  266        brmix                                 4.214743                           39   3
  267          brpre                                 0.047244                         39   4
  268          setg0                                 1.821154                         39   4
  269          broyd                                 0.715621                         39   4
  270            brget                                 0.136439                     1906   5
  271            brsav                                 0.076619                      510   5
  272          m_bcast_z                             1.005488                         39   4
  273          m_bcast_d                             0.012327                         39   4
  274        m_bcast_d                             0.005543                           78   3
  275      potlok                               48.607744                             39   2
  276        fft3d_mpi                            16.935899                          507   3
  277          fftbrc_mpi                           13.405595                        507   4
  278            fftbas_plan_mpi                      13.404679                      507   5
  279              dfftw_execute                         8.367153                   1521   6
  280              map_forward                           2.473590                    546   6
  281                map_scatter                           1.431440                  273   7
  282              map_backward                          2.490496                    468   6
  283                map_gather                            1.667862                  234   7
  284        ggaall_grid                           7.306926                           39   3
  285        pothar                                1.435811                           39   3
  286      potlok_metagga                        0.000031                             39   2
  287      set_dd_magatom                        0.000174                             39   2
  288      set_dd_paw                            1.157027                             39   2
  289        m_sumb_d                              0.329382                          273   3
  290      wavpre_noio                          26.337713                             38   2
  291        stufak                                8.924787                           38   3
  292      densta                                0.001769                              1   2
  293        m_sumb_d                              0.000123                           41   3
 
 Flat profile
 ============
 
             routine name                   CPU           calls
 ---------------------------------------------------------------
 potlok                                229.904422         389
 eddav                                 126.945623          43
 rpromu_acc                            108.037586      119609
 i2                                     99.583975       58722
 dfftw_execute                          98.033460       18675
 ggaall_grid                            80.962338         428
 eddiag                                 79.480765         311
 hamiltmu                               70.412423       66247
 i3                                     64.901297       58722
 m_sumb_d                               57.673382       19972
 setdij_                                56.290785        1404
 newband                                48.602567       66955
 fft3d_mpi                              43.011512      431378
 fft3d                                  23.441545     1376529
 augmentation_charge                    22.030508         350
 map_gather                             20.921136        3307
 total_time                             20.342782           1
 phaser                                 18.936015        1722
 force_and_stress                       18.323174          39
 wavpre_noio                            17.412926          38
 choleski                               16.818120         700
 racc0mu_acc                            16.776112       66247
 raccmu_                                16.621395       66247
 cnorma                                 16.432411     1092771
 setg0                                  16.156214         389
 map_scatter                            15.691556        3035
 rspher_all                             15.342182         508
 pothar                                 14.371350         428
 forhar                                 11.747818          78
 map_forward                            11.501193        6070
 eccp                                   10.808161      517893
 map_backward                           10.347222        6614
 elmin                                   9.189655          39
 stufak                                  9.183907          39
 set_dd_paw                              9.074835         428
 m_bcast_z                               8.369920         783
 fftwav                                  7.331562      951493
 w1_copy                                 7.237536      870186
 lapack                                  6.456902        7525
 w1_gemv                                 6.385294      783912
 w1_dot                                  6.264145      133393
 forloc                                  5.879507          39
 brmix                                   5.501732         350
 w1_dscal                                5.202551      523277
 orth1                                   4.796455       25763
 overl_mu                                4.695506       66247
 orthch                                  4.284861         350
 lincom                                  4.148358        1408
 w1_daxpy                                3.844879      461728
 set_charge                              2.743244         350
 broyd                                   2.657684         350
 proall                                  2.169642          39
 eddrmm                                  1.857439         311
 kinhamil                                1.801746      425036
 fftext_mpi                              1.729453      425036
 vhamil                                  1.587508      425036
 soft_charge                             1.574322         350
 eccp_nl                                 1.572718      728514
 depsum                                  1.572449         350
 w1_gaxpy                                1.531190      199048
 overl1                                  1.454497      195978
 fftwav_mpi                              1.439805      951493
 fftbas_plan_mpi                         1.408674        6342
 apply_precond                           1.230045      371396
 strnlr                                  1.206169          39
 setup_precond                           1.088128      153636
 brget                                   0.840806       11876
 rpro_isp                                0.833872        1014
 zhegv                                   0.817423       97471
 strkin                                  0.757962          39
 overl                                   0.750685       97894
 strelo                                  0.683138          39
 densta                                  0.578344         355
 brsav                                   0.517529        3582
 ggemm                                   0.475916        9933
 init_hip                                0.469194           1
 pw_charge                               0.450730      134071
 brpre                                   0.423633         350
 strehar                                 0.405375          39
 fornlr                                  0.393753          39
 chggra                                  0.277281          39
 rsp                                     0.181082          39
 fft_gq                                  0.164210         350
 m_bcast_d                               0.137424         585
 hamilt_local                            0.123722      134974
 i1                                      0.121652       58722
 w1_projall                              0.071311       63839
 truncate_high_frequency_w1              0.063441      443698
 inisym                                  0.047125           1
 hip_hipfft_makeplan                     0.015275           6
 rcp                                     0.014047          39
 brgrid                                  0.011832           1
 fftbrc_mpi                              0.010273        6342
 fewald                                  0.002607          39
 vectorpot                               0.001829         351
 fordep                                  0.001823          39
 set_dd_magatom                          0.001740         428
 shift_bands_between_low_high            0.000387         622
 hip_init_hipblas                        0.000291           1
 potlok_metagga                          0.000285         389
 posmap                                  0.000119           2
 hip_init_rocsolver                      0.000068           1
 crpa_reader                             0.000062           1
 rotate_active_occupied_orbital          0.000024          39
 redis_pw_over_bands                     0.000004          39
 hip_hipfft_makeplans                    0.000004           3
 ---------------------------------------------------------------
  summed up times    1623.98054599762     
 
 Accumulative profile
 ====================
 
             routine name                   CPU           calls
 ---------------------------------------------------------------
 total_time                           1623.980546           1
 elmin                                1284.075241          39
 potlok                                485.272893         389
 eddrmm                                428.016292         311
 force_and_stress                      220.560127          39
 fft3d_mpi                             207.887962      431378
 eddav                                 170.802389          43
 fftbrc_mpi                            157.913514        6342
 fftbas_plan_mpi                       157.903242        6342
 i2                                    122.695390       58722
 hamiltmu                              116.930950       66247
 rpromu_acc                            108.037586      119609
 i3                                    102.849981       58722
 dfftw_execute                          98.033460       18675
 eddiag                                 90.862077         311
 set_charge                             84.949745         350
 rpro_isp                               81.077702        1014
 ggaall_grid                            80.962338         428
 strnlr                                 77.686580          39
 newband                                58.405882       66955
 m_sumb_d                               57.673382       19972
 setdij_                                56.290785        1404
 soft_charge                            46.032133         350
 raccmu_                                38.093013       66247
 brmix                                  34.578227         350
 w1_projall                             34.177587       63839
 augmentation_charge                    34.150234         350
 map_backward                           31.268358        6614
 map_forward                            27.192749        6070
 wavpre_noio                            26.337713          38
 fornlr                                 25.716103          39
 fftwav_mpi                             25.249976      951493
 orthch                                 24.840886         350
 fftwav                                 23.810172      951493
 fft3d                                  23.441545     1376529
 map_gather                             20.921136        3307
 phaser                                 18.936015        1722
 cnorma                                 18.005129     1092771
 choleski                               16.818120         700
 racc0mu_acc                            16.776112       66247
 setg0                                  16.156214         389
 map_scatter                            15.691556        3035
 rspher_all                             15.342182         508
 pothar                                 14.371350         428
 set_dd_paw                             12.949534         428
 forhar                                 11.747818          78
 eccp                                   10.808161      517893
 kinhamil                               10.731791      425036
 proall                                  9.636079          39
 fordep                                  9.374151          39
 stufak                                  9.183907          39
 fftext_mpi                              8.930045      425036
 m_bcast_z                               8.369920         783
 w1_gemv                                 7.839791      783912
 w1_copy                                 7.237536      870186
 lapack                                  6.456902        7525
 w1_dot                                  6.264145      133393
 forloc                                  5.879507          39
 w1_dscal                                5.202551      523277
 orth1                                   4.796455       25763
 overl_mu                                4.695506       66247
 lincom                                  4.148358        1408
 hamilt_local                            4.017508      134974
 broyd                                   4.016019         350
 w1_daxpy                                3.844879      461728
 fft_gq                                  3.421985         350
 depsum                                  2.024133         350
 i1                                      1.816396       58722
 vhamil                                  1.587508      425036
 eccp_nl                                 1.572718      728514
 w1_gaxpy                                1.531190      199048
 overl1                                  1.454497      195978
 apply_precond                           1.230045      371396
 setup_precond                           1.088128      153636
 brget                                   0.840806       11876
 zhegv                                   0.817423       97471
 strkin                                  0.792525          39
 overl                                   0.750685       97894
 chggra                                  0.705242          39
 strelo                                  0.683138          39
 fewald                                  0.639256          39
 densta                                  0.620363         355
 brsav                                   0.517529        3582
 ggemm                                   0.475916        9933
 init_hip                                0.469194           1
 pw_charge                               0.450730      134071
 brpre                                   0.423633         350
 strehar                                 0.405375          39
 rsp                                     0.181082          39
 m_bcast_d                               0.137424         585
 truncate_high_frequency_w1              0.063441      443698
 inisym                                  0.047244           1
 hip_hipfft_makeplans                    0.015279           3
 hip_hipfft_makeplan                     0.015275           6
 rcp                                     0.014047          39
 brgrid                                  0.011832           1
 vectorpot                               0.001829         351
 set_dd_magatom                          0.001740         428
 shift_bands_between_low_high            0.000387         622
 hip_init_hipblas                        0.000291           1
 potlok_metagga                          0.000285         389
 posmap                                  0.000119           2
 hip_init_rocsolver                      0.000068           1
 crpa_reader                             0.000062           1
 rotate_active_occupied_orbital          0.000024          39
 redis_pw_over_bands                     0.000004          39
 ---------------------------------------------------------------
 
Profiling took   2.229586  1.362115  0.002847  0.002693 seconds
Profiling took   1.784151 seconds
