srun: ROUTE: split_hostlist: hl=e10r3n12 tree_width 0
 running on    4 total cores
 distrk:  each k-point on    1 cores,    4 groups
 distr:  one band on    1 cores,    1 groups
 HIP runtime initialized ...    4 DCUs will be used
 Created    4 streams on each DCU
 vasp.6.3.2 27Jun22 (build Mar 15 2023 15:45:48) complex                        
  
 POSCAR found type information on POSCAR O Al
 POSCAR found :  2 types and      72 ions
 Reading from existing POTCAR
 scaLAPACK will be used selectively (only on CPU)
 Reading from existing POTCAR
 LDA part: xc-table for Pade appr. of Perdew
 POSCAR found type information on POSCAR O Al
 POSCAR found :  2 types and      72 ions
 Optimize memory usage for KPAR
 POSCAR, INCAR and KPOINTS ok, starting setup
 FFT: planning ... GRIDC
 FFT: planning ... GRID_SOFT
 FFT: planning ... GRID
 WAVECAR not read
 entering main loop
       N       E                     dE             d eps       ncg     rms          rms(c)
DAV:   1     0.343141700528E+04    0.34314E+04   -0.16618E+05  3126   0.142E+03
DAV:   2     0.155250187061E+02   -0.34159E+04   -0.33362E+04  4058   0.352E+02
DAV:   3    -0.487181380632E+03   -0.50271E+03   -0.49029E+03  3380   0.141E+02
DAV:   4    -0.502076463623E+03   -0.14895E+02   -0.14807E+02  3412   0.276E+01
DAV:   5    -0.502524168305E+03   -0.44770E+00   -0.44685E+00  3508   0.428E+00    0.415E+01
RMM:   6    -0.462375992937E+03    0.40148E+02   -0.16638E+02  3038   0.246E+01    0.151E+01
RMM:   7    -0.462874842625E+03   -0.49885E+00   -0.17502E+01  3038   0.796E+00    0.101E+01
RMM:   8    -0.462606017742E+03    0.26882E+00   -0.32889E+00  3038   0.360E+00    0.717E+00
RMM:   9    -0.466033110841E+03   -0.34271E+01   -0.24346E+00  3039   0.290E+00    0.258E+01
RMM:  10    -0.462625208310E+03    0.34079E+01   -0.11946E+00  3048   0.229E+00    0.650E+00
RMM:  11    -0.462596972184E+03    0.28236E-01   -0.26303E-01  3038   0.110E+00    0.349E+00
RMM:  12    -0.462647834281E+03   -0.50862E-01   -0.95932E-02  3050   0.655E-01    0.471E+00
RMM:  13    -0.462547135761E+03    0.10070E+00   -0.32441E-02  3097   0.362E-01    0.100E+00
RMM:  14    -0.462561757026E+03   -0.14621E-01   -0.22658E-02  3062   0.284E-01    0.132E+00
RMM:  15    -0.462553898888E+03    0.78581E-02   -0.20875E-02  3178   0.270E-01    0.969E-01
RMM:  16    -0.462557814365E+03   -0.39155E-02   -0.84011E-03  3045   0.173E-01    0.110E+00
RMM:  17    -0.462552620380E+03    0.51940E-02   -0.37111E-03  3038   0.132E-01    0.551E-01
RMM:  18    -0.462551943328E+03    0.67705E-03   -0.13863E-03  2872   0.756E-02    0.379E-01
RMM:  19    -0.462551413774E+03    0.52955E-03   -0.65238E-04  2773   0.534E-02    0.275E-01
RMM:  20    -0.462551212146E+03    0.20163E-03   -0.20988E-04  1880   0.299E-02    0.146E-01
RMM:  21    -0.462551406982E+03   -0.19484E-03   -0.53950E-04  2375   0.408E-02    0.171E-01
RMM:  22    -0.462551164020E+03    0.24296E-03   -0.26234E-04  2018   0.288E-02    0.566E-02
RMM:  23    -0.462551268016E+03   -0.10400E-03   -0.13135E-04  1670   0.207E-02    0.113E-01
RMM:  24    -0.462551170056E+03    0.97960E-04   -0.14329E-04  1696   0.197E-02
   1 F= -.46255117E+03 E0= -.46240004E+03  d E =-.462551E+03
 curvature:   0.00 expect dE= 0.000E+00 dE for cont linesearch  0.000E+00
 trial: gam= 0.00000 g(F)=  0.316E+00 g(S)=  0.000E+00 ort = 0.000E+00 (trialstep = 0.100E+01)
 search vector abs. value=  0.316E+00
 bond charge predicted
       N       E                     dE             d eps       ncg     rms          rms(c)
DAV:   1    -0.462726250181E+03   -0.17498E+00   -0.84851E+01  3268   0.214E+01    0.386E+00
RMM:   2    -0.468283789060E+03   -0.55575E+01   -0.24595E+00  3038   0.305E+00    0.328E+01
RMM:   3    -0.462640120867E+03    0.56437E+01   -0.67045E-01  3038   0.172E+00    0.164E+00
RMM:   4    -0.462821022040E+03   -0.18090E+00   -0.13250E-01  3038   0.843E-01    0.203E+00
RMM:   5    -0.462828609713E+03   -0.75877E-02   -0.39319E-02  3040   0.403E-01    0.198E+00
RMM:   6    -0.462816616401E+03    0.11993E-01   -0.12371E-02  3038   0.221E-01    0.938E-01
RMM:   7    -0.462814363154E+03    0.22532E-02   -0.55272E-03  2932   0.135E-01    0.741E-01
RMM:   8    -0.462814961040E+03   -0.59789E-03   -0.46151E-03  2958   0.123E-01    0.749E-01
RMM:   9    -0.462810799139E+03    0.41619E-02   -0.19946E-03  2772   0.826E-02    0.318E-01
RMM:  10    -0.462812200199E+03   -0.14011E-02   -0.13362E-03  2742   0.638E-02    0.455E-01
RMM:  11    -0.462810549041E+03    0.16512E-02   -0.44669E-04  2359   0.412E-02    0.997E-02
RMM:  12    -0.462810810024E+03   -0.26098E-03   -0.13870E-04  1788   0.216E-02    0.114E-01
RMM:  13    -0.462810808629E+03    0.13950E-05   -0.77876E-05  1601   0.156E-02
   2 F= -.46281081E+03 E0= -.46265809E+03  d E =-.259639E+00
 trial-energy change:   -0.259639  1 .order   -0.259141   -0.316223   -0.202058
 step:   2.7699(harm=  2.7699)  dis= 0.07797  next Energy=  -462.989120 (dE=-0.438E+00)
 bond charge predicted
       N       E                     dE             d eps       ncg     rms          rms(c)
DAV:   1    -0.462666560785E+03    0.14425E+00   -0.26720E+02  3072   0.374E+01    0.665E+00
RMM:   2    -0.476443139475E+03   -0.13777E+02   -0.73376E+00  3038   0.538E+00    0.355E+01
RMM:   3    -0.462830278084E+03    0.13613E+02   -0.19532E+00  3038   0.289E+00    0.379E+00
RMM:   4    -0.462959790388E+03   -0.12951E+00   -0.41235E-01  3038   0.139E+00    0.200E+00
RMM:   5    -0.463074412760E+03   -0.11462E+00   -0.11652E-01  3041   0.687E-01    0.421E+00
RMM:   6    -0.462965563203E+03    0.10885E+00   -0.35002E-02  3038   0.373E-01    0.943E-01
RMM:   7    -0.462994684404E+03   -0.29121E-01   -0.22325E-02  3057   0.266E-01    0.199E+00
RMM:   8    -0.462966643190E+03    0.28041E-01   -0.11840E-02  3041   0.207E-01    0.882E-01
RMM:   9    -0.462966133632E+03    0.50956E-03   -0.51925E-03  2944   0.134E-01    0.692E-01
RMM:  10    -0.462965073434E+03    0.10602E-02   -0.28239E-03  2911   0.102E-01    0.553E-01
RMM:  11    -0.462962972007E+03    0.21014E-02   -0.76666E-04  2678   0.542E-02    0.231E-01
RMM:  12    -0.462963160455E+03   -0.18845E-03   -0.34768E-04  2180   0.330E-02    0.218E-01
RMM:  13    -0.462962913535E+03    0.24692E-03   -0.20288E-04  1999   0.254E-02    0.176E-01
RMM:  14    -0.462962675658E+03    0.23788E-03   -0.10562E-04  1691   0.186E-02    0.872E-02
RMM:  15    -0.462962710644E+03   -0.34986E-04   -0.84081E-05  1669   0.164E-02
   3 F= -.46296271E+03 E0= -.46280481E+03  d E =-.411541E+00
 curvature:  -1.38 expect dE=-0.290E-01 dE for cont linesearch -0.679E-02
 ZBRENT: interpolating
 opt :   2.4812  next Energy=  -462.968396 (dE=-0.417E+00)
 bond charge predicted
       N       E                     dE             d eps       ncg     rms          rms(c)
DAV:   1    -0.462959919554E+03    0.27561E-02   -0.71085E+00  3324   0.612E+00    0.109E+00
RMM:   2    -0.463359466628E+03   -0.39955E+00   -0.22541E-01  3038   0.967E-01    0.977E+00
RMM:   3    -0.462946358942E+03    0.41311E+00   -0.49815E-02  3038   0.506E-01    0.520E-01
RMM:   4    -0.462967777084E+03   -0.21418E-01   -0.95892E-03  3036   0.249E-01    0.532E-01
RMM:   5    -0.462968615750E+03   -0.83867E-03   -0.26741E-03  2838   0.108E-01    0.501E-01
RMM:   6    -0.462968069588E+03    0.54616E-03   -0.92556E-04  2672   0.604E-02    0.296E-01
RMM:   7    -0.462968243625E+03   -0.17404E-03   -0.45843E-04  2331   0.387E-02    0.291E-01
RMM:   8    -0.462968297903E+03   -0.54278E-04   -0.29974E-04  2097   0.327E-02
   4 F= -.46296830E+03 E0= -.46281166E+03  d E =-.417128E+00
 curvature:  -1.16 expect dE=-0.152E-01 dE for cont linesearch -0.702E-05
 trial: gam= 0.03712 g(F)=  0.131E-01 g(S)=  0.000E+00 ort = 0.138E-02 (trialstep = 0.130E+01)
 search vector abs. value=  0.137E-01
 bond charge predicted
       N       E                     dE             d eps       ncg     rms          rms(c)
DAV:   1    -0.462978970312E+03   -0.10727E-01   -0.59163E+00  3194   0.554E+00    0.851E-01
RMM:   2    -0.463129959052E+03   -0.15099E+00   -0.14551E-01  3038   0.788E-01    0.577E+00
RMM:   3    -0.462977588380E+03    0.15237E+00   -0.21813E-02  3038   0.347E-01    0.575E-01
RMM:   4    -0.462990961966E+03   -0.13374E-01   -0.84920E-03  3037   0.197E-01    0.121E+00
RMM:   5    -0.462984344721E+03    0.66172E-02   -0.25522E-03  2910   0.103E-01    0.254E-01
RMM:   6    -0.462986241632E+03   -0.18969E-02   -0.10429E-03  2695   0.617E-02    0.424E-01
RMM:   7    -0.462985157980E+03    0.10837E-02   -0.50561E-04  2414   0.412E-02    0.206E-01
RMM:   8    -0.462986041573E+03   -0.88359E-03   -0.44994E-04  2263   0.354E-02    0.349E-01
RMM:   9    -0.462985168123E+03    0.87345E-03   -0.17760E-04  1866   0.246E-02    0.764E-02
RMM:  10    -0.462985255242E+03   -0.87119E-04   -0.66117E-05  1570   0.154E-02
   5 F= -.46298526E+03 E0= -.46282924E+03  d E =-.169573E-01
 ZBRENT: can't locate minimum, use default step
 trial-energy change:   -0.016957  1 .order   -0.016665   -0.017077   -0.016253
 step:   5.1849(harm= 26.8875)  dis= 0.02832  next Energy=  -463.145406 (dE=-0.177E+00)
 bond charge predicted
       N       E                     dE             d eps       ncg     rms          rms(c)
DAV:   1    -0.462976589065E+03    0.85791E-02   -0.53189E+01  3068   0.166E+01    0.254E+00
RMM:   2    -0.464563525352E+03   -0.15869E+01   -0.14889E+00  3038   0.252E+00    0.202E+01
RMM:   3    -0.462969999910E+03    0.15935E+01   -0.20472E-01  3038   0.108E+00    0.222E+00
RMM:   4    -0.463094015673E+03   -0.12402E+00   -0.90349E-02  3040   0.615E-01    0.380E+00
RMM:   5    -0.463030876721E+03    0.63139E-01   -0.26229E-02  3039   0.339E-01    0.708E-01
RMM:   6    -0.463041872057E+03   -0.10995E-01   -0.11289E-02  3048   0.201E-01    0.145E+00
RMM:   7    -0.463033374795E+03    0.84973E-02   -0.55653E-03  3037   0.142E-01    0.570E-01
RMM:   8    -0.463037385004E+03   -0.40102E-02   -0.26793E-03  2870   0.995E-02    0.752E-01
RMM:   9    -0.463033646710E+03    0.37383E-02   -0.10332E-03  2688   0.606E-02    0.314E-01
RMM:  10    -0.463033724987E+03   -0.78277E-04   -0.58153E-04  2410   0.425E-02
   6 F= -.46303372E+03 E0= -.46287960E+03  d E =-.654271E-01
 curvature:  -3.91 expect dE=-0.464E-01 dE for cont linesearch -0.402E-01
 ZBRENT: increasing intervall
 opt :  12.9623  next Energy=  -463.120451 (dE=-0.152E+00)
 bond charge predicted
       N       E                     dE             d eps       ncg     rms          rms(c)
DAV:   1    -0.462867424601E+03    0.16622E+00   -0.21217E+02  3070   0.332E+01    0.567E+00
RMM:   2    -0.472162213309E+03   -0.92948E+01   -0.79952E+00  3038   0.581E+00    0.342E+01
RMM:   3    -0.463081502205E+03    0.90807E+01   -0.11948E+00  3038   0.248E+00    0.522E+00
RMM:   4    -0.463265233591E+03   -0.18373E+00   -0.38019E-01  3038   0.126E+00    0.522E+00
RMM:   5    -0.463134103341E+03    0.13113E+00   -0.97455E-02  3038   0.661E-01    0.170E+00
RMM:   6    -0.463200543485E+03   -0.66440E-01   -0.51255E-02  3051   0.397E-01    0.324E+00
RMM:   7    -0.463142136374E+03    0.58407E-01   -0.30225E-02  3103   0.314E-01    0.158E+00
RMM:   8    -0.463134597869E+03    0.75385E-02   -0.17291E-02  3084   0.229E-01    0.139E+00
RMM:   9    -0.463130361060E+03    0.42368E-02   -0.82697E-03  3086   0.163E-01    0.926E-01
RMM:  10    -0.463125509088E+03    0.48520E-02   -0.25560E-03  2947   0.990E-02    0.345E-01
RMM:  11    -0.463127088607E+03   -0.15795E-02   -0.17209E-03  2781   0.747E-02    0.631E-01
RMM:  12    -0.463125280356E+03    0.18083E-02   -0.75782E-04  2648   0.546E-02    0.178E-01
RMM:  13    -0.463125544698E+03   -0.26434E-03   -0.30091E-04  2062   0.332E-02    0.158E-01
RMM:  14    -0.463125483643E+03    0.61055E-04   -0.80830E-05  1711   0.185E-02
   7 F= -.46312548E+03 E0= -.46297166E+03  d E =-.157186E+00
 curvature:  -8.44 expect dE=-0.172E+00 dE for cont linesearch -0.895E-01
 ZBRENT: increasing intervall
 opt :  28.5172  next Energy=  -463.315502 (dE=-0.347E+00)
 bond charge predicted
       N       E                     dE             d eps       ncg     rms          rms(c)
DAV:   1    -0.461742153685E+03    0.13834E+01   -0.84033E+02  3110   0.657E+01    0.120E+01
RMM:   2    -0.489869756912E+03   -0.28128E+02   -0.43531E+01  3038   0.139E+01    0.391E+01
RMM:   3    -0.463630305437E+03    0.26239E+02   -0.58234E+00  3038   0.559E+00    0.983E+00
RMM:   4    -0.463617266430E+03    0.13039E-01   -0.15476E+00  3038   0.268E+00    0.686E+00
RMM:   5    -0.463395760967E+03    0.22151E+00   -0.43505E-01  3040   0.139E+00    0.377E+00
RMM:   6    -0.463541107513E+03   -0.14535E+00   -0.20392E-01  3042   0.869E-01    0.647E+00
RMM:   7    -0.463541886102E+03   -0.77859E-03   -0.13890E-01  3045   0.742E-01    0.656E+00
RMM:   8    -0.463374904578E+03    0.16698E+00   -0.56227E-02  3053   0.471E-01    0.295E+00
RMM:   9    -0.463345129961E+03    0.29775E-01   -0.20664E-02  3039   0.272E-01    0.130E+00
RMM:  10    -0.463348999647E+03   -0.38697E-02   -0.10858E-02  3067   0.203E-01    0.127E+00
RMM:  11    -0.463340080044E+03    0.89196E-02   -0.62152E-03  3053   0.159E-01    0.649E-01
RMM:  12    -0.463340215772E+03   -0.13573E-03   -0.31656E-03  2994   0.109E-01    0.627E-01
RMM:  13    -0.463339517085E+03    0.69869E-03   -0.14125E-03  2864   0.714E-02    0.471E-01
RMM:  14    -0.463337918260E+03    0.15988E-02   -0.44079E-04  2475   0.420E-02    0.109E-01
RMM:  15    -0.463338123407E+03   -0.20515E-03   -0.17539E-04  1882   0.258E-02    0.139E-01
RMM:  16    -0.463338151069E+03   -0.27661E-04   -0.25954E-04  1929   0.311E-02
   8 F= -.46333815E+03 E0= -.46319816E+03  d E =-.369853E+00
 curvature: -17.94 expect dE=-0.163E+01 dE for cont linesearch -0.241E+00
 ZBRENT: increasing intervall
 opt :  59.6268  next Energy=  -463.807734 (dE=-0.839E+00)
 bond charge predicted
       N       E                     dE             d eps       ncg     rms          rms(c)
DAV:   1    -0.449766453370E+03    0.13572E+02   -0.31778E+03  3094   0.128E+02    0.273E+01
RMM:   2    -0.537578150484E+03   -0.87812E+02   -0.30620E+02  3038   0.326E+01    0.498E+01
RMM:   3    -0.471816282222E+03    0.65762E+02   -0.33435E+01  3038   0.139E+01    0.394E+01
RMM:   4    -0.466375822476E+03    0.54405E+01   -0.12304E+01  3038   0.748E+00    0.205E+01
RMM:   5    -0.463428202635E+03    0.29476E+01   -0.13592E+00  3038   0.286E+00    0.695E+00
RMM:   6    -0.464604701253E+03   -0.11765E+01   -0.97172E-01  3045   0.184E+00    0.146E+01
RMM:   7    -0.464845440685E+03   -0.24074E+00   -0.61603E-01  3127   0.140E+00    0.155E+01
RMM:   8    -0.463360068072E+03    0.14854E+01   -0.32800E-01  3049   0.105E+00    0.649E+00
RMM:   9    -0.463164035953E+03    0.19603E+00   -0.14254E-01  3077   0.710E-01    0.312E+00
RMM:  10    -0.463143324731E+03    0.20711E-01   -0.44022E-02  3039   0.428E-01    0.214E+00
RMM:  11    -0.463134595870E+03    0.87289E-02   -0.92729E-03  3115   0.205E-01    0.151E+00
RMM:  12    -0.463248715873E+03   -0.11412E+00   -0.36042E-02  3339   0.329E-01    0.445E+00
RMM:  13    -0.463141454449E+03    0.10726E+00   -0.21118E-02  3284   0.264E-01    0.211E+00
RMM:  14    -0.463123318351E+03    0.18136E-01   -0.76077E-03  2996   0.160E-01    0.954E-01
RMM:  15    -0.463122187287E+03    0.11311E-02   -0.60999E-03  3132   0.140E-01    0.661E-01
RMM:  16    -0.463120647733E+03    0.15396E-02   -0.10926E-03  2729   0.758E-02    0.367E-01
RMM:  17    -0.463121070001E+03   -0.42227E-03   -0.10477E-03  2742   0.621E-02    0.348E-01
RMM:  18    -0.463120714829E+03    0.35517E-03   -0.83954E-04  2715   0.538E-02    0.304E-01
RMM:  19    -0.463121097141E+03   -0.38231E-03   -0.36078E-04  2164   0.360E-02    0.397E-01
RMM:  20    -0.463121141833E+03   -0.44692E-04   -0.16912E-04  1819   0.242E-02
   9 F= -.46312114E+03 E0= -.46301066E+03  d E =-.152844E+00
 curvature: -34.88 expect dE=-0.212E+02 dE for cont linesearch -0.222E+01
 ZBRENT: bracketing found
 ZBRENT: interpolating
 opt :  38.3168  next Energy=  -463.404605 (dE=-0.436E+00)
 bond charge predicted
       N       E                     dE             d eps       ncg     rms          rms(c)
DAV:   1    -0.460195886945E+03    0.29252E+01   -0.15880E+03  3068   0.880E+01    0.200E+01
RMM:   2    -0.528098209535E+03   -0.67902E+02   -0.74273E+01  3038   0.168E+01    0.470E+01
RMM:   3    -0.473067588983E+03    0.55031E+02   -0.17834E+01  3038   0.852E+00    0.367E+01
RMM:   4    -0.464212343371E+03    0.88552E+01   -0.95364E+00  3038   0.572E+00    0.122E+01
RMM:   5    -0.465812289406E+03   -0.15999E+01   -0.18727E+00  3113   0.267E+00    0.232E+01
RMM:   6    -0.463530489084E+03    0.22818E+01   -0.28575E-01  3038   0.125E+00    0.440E+00
RMM:   7    -0.463736496691E+03   -0.20601E+00   -0.30153E-01  3051   0.104E+00    0.703E+00
RMM:   8    -0.463590784929E+03    0.14571E+00   -0.10395E-01  3077   0.606E-01    0.537E+00
RMM:   9    -0.463477935522E+03    0.11285E+00   -0.46745E-02  3043   0.422E-01    0.329E+00
RMM:  10    -0.463477526508E+03    0.40901E-03   -0.93945E-02  3317   0.590E-01    0.290E+00
RMM:  11    -0.463445646007E+03    0.31881E-01   -0.34043E-02  3048   0.348E-01    0.174E+00
RMM:  12    -0.463450282807E+03   -0.46368E-02   -0.17242E-02  3074   0.246E-01    0.189E+00
RMM:  13    -0.463435633880E+03    0.14649E-01   -0.74010E-03  3038   0.182E-01    0.111E+00
RMM:  14    -0.463434225548E+03    0.14083E-02   -0.51704E-03  2989   0.136E-01    0.958E-01
RMM:  15    -0.463428138899E+03    0.60866E-02   -0.89295E-03  3317   0.159E-01    0.224E-01
RMM:  16    -0.463428452303E+03   -0.31340E-03   -0.80128E-04  2641   0.592E-02    0.236E-01
RMM:  17    -0.463428242146E+03    0.21016E-03   -0.46668E-04  2578   0.445E-02    0.189E-01
RMM:  18    -0.463428201641E+03    0.40505E-04   -0.25745E-04  1924   0.317E-02
  10 F= -.46342820E+03 E0= -.46330608E+03  d E =-.459904E+00
 curvature:  -1.04 expect dE=-0.167E+00 dE for cont linesearch -0.173E-02
 ZBRENT: interpolating
 opt :  42.8859  next Energy=  -463.440601 (dE=-0.472E+00)
 bond charge predicted
       N       E                     dE             d eps       ncg     rms          rms(c)
DAV:   1    -0.463360180008E+03    0.68062E-01   -0.73701E+01  3112   0.195E+01    0.365E+00
RMM:   2    -0.467841634392E+03   -0.44815E+01   -0.30441E+00  3038   0.352E+00    0.326E+01
RMM:   3    -0.463275214583E+03    0.45664E+01   -0.62355E-01  3038   0.174E+00    0.186E+00
RMM:   4    -0.463445055135E+03   -0.16984E+00   -0.12932E-01  3038   0.833E-01    0.184E+00
RMM:   5    -0.463432477769E+03    0.12577E-01   -0.33222E-02  3078   0.384E-01    0.922E-01
RMM:   6    -0.463448260810E+03   -0.15783E-01   -0.15585E-02  3053   0.224E-01    0.157E+00
RMM:   7    -0.463429017134E+03    0.19244E-01   -0.56880E-03  3011   0.148E-01    0.564E-01
RMM:   8    -0.463429922922E+03   -0.90579E-03   -0.26298E-03  2862   0.966E-02    0.588E-01
RMM:   9    -0.463430078616E+03   -0.15569E-03   -0.18984E-03  2838   0.813E-02    0.526E-01
RMM:  10    -0.463428237041E+03    0.18416E-02   -0.84579E-04  2538   0.558E-02    0.858E-02
RMM:  11    -0.463428450801E+03   -0.21376E-03   -0.17637E-04  1868   0.280E-02    0.124E-01
RMM:  12    -0.463428348410E+03    0.10239E-03   -0.59711E-05  1674   0.146E-02    0.675E-02
RMM:  13    -0.463428347775E+03    0.63562E-06   -0.31273E-05  1447   0.106E-02
  11 F= -.46342835E+03 E0= -.46331059E+03  d E =-.460050E+00
 curvature:  -7.46 expect dE=-0.170E+01 dE for cont linesearch -0.736E-02
 ZBRENT: interpolating
 opt :  40.8972  next Energy=  -463.431999 (dE=-0.464E+00)
 bond charge predicted
       N       E                     dE             d eps       ncg     rms          rms(c)
DAV:   1    -0.463421234088E+03    0.71143E-02   -0.14047E+01  3180   0.848E+00    0.148E+00
RMM:   2    -0.464054481794E+03   -0.63325E+00   -0.42847E-01  3038   0.135E+00    0.108E+01
RMM:   3    -0.463405780128E+03    0.64870E+00   -0.10006E-01  3038   0.694E-01    0.708E-01
RMM:   4    -0.463434111200E+03   -0.28331E-01   -0.21969E-02  3034   0.337E-01    0.696E-01
RMM:   5    -0.463433015140E+03    0.10961E-02   -0.53313E-03  2999   0.155E-01    0.396E-01
RMM:   6    -0.463435669953E+03   -0.26548E-02   -0.28683E-03  2815   0.955E-02    0.713E-01
RMM:   7    -0.463432824997E+03    0.28450E-02   -0.10801E-03  2668   0.637E-02    0.244E-01
RMM:   8    -0.463432842628E+03   -0.17631E-04   -0.44611E-04  2305   0.386E-02
  12 F= -.46343284E+03 E0= -.46331331E+03  d E =-.464545E+00
 curvature:  -3.70 expect dE=-0.751E+00 dE for cont linesearch -0.167E-03
 trial: gam=15.82221 g(F)=  0.203E+00 g(S)=  0.000E+00 ort =-0.784E-03 (trialstep = 0.350E-01)
 search vector abs. value=  0.360E+01
 bond charge predicted
       N       E                     dE             d eps       ncg     rms          rms(c)
DAV:   1    -0.463437922907E+03   -0.50979E-02   -0.11371E+00  3188   0.242E+00    0.307E-01
RMM:   2    -0.463460630050E+03   -0.22707E-01   -0.26148E-02  3038   0.343E-01    0.180E+00
RMM:   3    -0.463438416704E+03    0.22213E-01   -0.40699E-03  3016   0.146E-01    0.196E-01
RMM:   4    -0.463439534074E+03   -0.11174E-02   -0.10119E-03  2689   0.697E-02    0.208E-01
RMM:   5    -0.463439316721E+03    0.21735E-03   -0.26108E-04  1968   0.332E-02    0.116E-01
RMM:   6    -0.463439278885E+03    0.37837E-04   -0.13292E-04  1786   0.214E-02
  13 F= -.46343928E+03 E0= -.46332020E+03  d E =-.643626E-02
 ZBRENT: can't locate minimum, use default step
 trial-energy change:   -0.006436  1 .order   -0.006656   -0.006672   -0.006641
 step:   0.1400(harm=  7.5260)  dis= 0.01291  next Energy=  -464.150338 (dE=-0.717E+00)
 bond charge predicted
       N       E                     dE             d eps       ncg     rms          rms(c)
DAV:   1    -0.463443952329E+03   -0.46356E-02   -0.10169E+01  3064   0.722E+00    0.887E-01
RMM:   2    -0.463615579855E+03   -0.17163E+00   -0.23309E-01  3038   0.102E+00    0.504E+00
RMM:   3    -0.463450512160E+03    0.16507E+00   -0.32638E-02  3038   0.419E-01    0.389E-01
RMM:   4    -0.463458301172E+03   -0.77890E-02   -0.66583E-03  3001   0.189E-01    0.488E-01
RMM:   5    -0.463457637644E+03    0.66353E-03   -0.21711E-03  2824   0.917E-02    0.399E-01
RMM:   6    -0.463458683945E+03   -0.10463E-02   -0.17060E-03  2761   0.751E-02    0.558E-01
RMM:   7    -0.463457462991E+03    0.12210E-02   -0.86060E-04  2642   0.550E-02    0.293E-01
RMM:   8    -0.463456953329E+03    0.50966E-03   -0.32961E-04  2094   0.353E-02    0.911E-02
RMM:   9    -0.463457091925E+03   -0.13860E-03   -0.13566E-04  1793   0.212E-02    0.127E-01
RMM:  10    -0.463456966062E+03    0.12586E-03   -0.48133E-05  1605   0.136E-02    0.609E-02
RMM:  11    -0.463456938300E+03    0.27761E-04   -0.16494E-05  1334   0.863E-03
  14 F= -.46345694E+03 E0= -.46333885E+03  d E =-.240957E-01
 curvature:  -1.98 expect dE=-0.405E+00 dE for cont linesearch -0.131E-01
 ZBRENT: increasing intervall
 opt :   0.3499  next Energy=  -463.481899 (dE=-0.491E-01)
 bond charge predicted
       N       E                     dE             d eps       ncg     rms          rms(c)
DAV:   1    -0.463430060695E+03    0.26905E-01   -0.40667E+01  3040   0.144E+01    0.194E+00
RMM:   2    -0.464335328936E+03   -0.90527E+00   -0.10778E+00  3038   0.217E+00    0.130E+01
RMM:   3    -0.463448709099E+03    0.88662E+00   -0.16201E-01  3038   0.926E-01    0.797E-01
RMM:   4    -0.463482573104E+03   -0.33864E-01   -0.29525E-02  3038   0.413E-01    0.566E-01
RMM:   5    -0.463487801110E+03   -0.52280E-02   -0.11409E-02  3038   0.211E-01    0.910E-01
RMM:   6    -0.463490157865E+03   -0.23568E-02   -0.61943E-03  2983   0.145E-01    0.112E+00
RMM:   7    -0.463482575109E+03    0.75828E-02   -0.23182E-03  2824   0.956E-02    0.134E-01
RMM:   8    -0.463483932431E+03   -0.13573E-02   -0.87720E-04  2614   0.572E-02    0.323E-01
RMM:   9    -0.463483139088E+03    0.79334E-03   -0.29924E-04  2062   0.334E-02    0.131E-01
RMM:  10    -0.463483079658E+03    0.59430E-04   -0.10508E-04  1732   0.204E-02
  15 F= -.46348308E+03 E0= -.46336505E+03  d E =-.502370E-01
 curvature:  -3.77 expect dE=-0.819E+00 dE for cont linesearch -0.101E-01
 ZBRENT: increasing intervall
 opt :   0.7698  next Energy=  -463.500794 (dE=-0.680E-01)
 bond charge predicted
       N       E                     dE             d eps       ncg     rms          rms(c)
DAV:   1    -0.463285426862E+03    0.19771E+00   -0.16218E+02  3046   0.287E+01    0.447E+00
RMM:   2    -0.469417548529E+03   -0.61321E+01   -0.57347E+00  3038   0.493E+00    0.353E+01
RMM:   3    -0.463323456221E+03    0.60941E+01   -0.91053E-01  3038   0.217E+00    0.192E+00
RMM:   4    -0.463501360145E+03   -0.17790E+00   -0.16137E-01  3038   0.975E-01    0.115E+00
RMM:   5    -0.463536014536E+03   -0.34654E-01   -0.58318E-02  3106   0.483E-01    0.194E+00
RMM:   6    -0.463517927788E+03    0.18087E-01   -0.21749E-02  3042   0.281E-01    0.143E+00
RMM:   7    -0.463503649646E+03    0.14278E-01   -0.85852E-03  3027   0.178E-01    0.574E-01
RMM:   8    -0.463508022902E+03   -0.43733E-02   -0.42184E-03  2965   0.118E-01    0.859E-01
RMM:   9    -0.463503033657E+03    0.49892E-02   -0.16341E-03  2834   0.842E-02    0.190E-01
RMM:  10    -0.463503293267E+03   -0.25961E-03   -0.54293E-04  2374   0.458E-02    0.190E-01
RMM:  11    -0.463503186998E+03    0.10627E-03   -0.21293E-04  1911   0.268E-02    0.136E-01
RMM:  12    -0.463503075606E+03    0.11139E-03   -0.80165E-05  1684   0.172E-02    0.737E-02
RMM:  13    -0.463503090535E+03   -0.14929E-04   -0.36295E-05  1496   0.115E-02
  16 F= -.46350309E+03 E0= -.46338495E+03  d E =-.702479E-01
 curvature:  -6.60 expect dE=-0.178E+01 dE for cont linesearch -0.192E-04
 trial: gam= 0.20508 g(F)=  0.269E+00 g(S)=  0.000E+00 ort = 0.323E-02 (trialstep = 0.182E+00)
 search vector abs. value=  0.422E+00
 bond charge predicted
       N       E                     dE             d eps       ncg     rms          rms(c)
DAV:   1    -0.463547479609E+03   -0.44404E-01   -0.35952E+00  3260   0.428E+00    0.752E-01
RMM:   2    -0.463707814097E+03   -0.16033E+00   -0.11500E-01  3038   0.701E-01    0.511E+00
RMM:   3    -0.463542671292E+03    0.16514E+00   -0.25476E-02  3038   0.359E-01    0.365E-01
RMM:   4    -0.463550810215E+03   -0.81389E-02   -0.59032E-03  2979   0.178E-01    0.284E-01
RMM:   5    -0.463551003611E+03   -0.19340E-03   -0.14512E-03  2772   0.798E-02    0.215E-01
RMM:   6    -0.463551179025E+03   -0.17541E-03   -0.63815E-04  2515   0.459E-02    0.255E-01
RMM:   7    -0.463551197434E+03   -0.18409E-04   -0.32152E-04  2110   0.330E-02
  17 F= -.46355120E+03 E0= -.46343268E+03  d E =-.481069E-01
 ZBRENT: can't locate minimum, use default step
 trial-energy change:   -0.048107  1 .order   -0.047608   -0.049156   -0.046060
 step:   0.7278(harm=  2.8889)  dis= 0.02589  next Energy=  -463.893320 (dE=-0.390E+00)
 bond charge predicted
       N       E                     dE             d eps       ncg     rms          rms(c)
DAV:   1    -0.463642080092E+03   -0.90901E-01   -0.32444E+01  3040   0.128E+01    0.224E+00
RMM:   2    -0.465003774843E+03   -0.13617E+01   -0.96847E-01  3038   0.206E+00    0.149E+01
RMM:   3    -0.463627536198E+03    0.13762E+01   -0.22633E-01  3038   0.104E+00    0.109E+00
RMM:   4    -0.463670378794E+03   -0.42843E-01   -0.51841E-02  3039   0.509E-01    0.779E-01
RMM:   5    -0.463671061232E+03   -0.68244E-03   -0.12113E-02  3047   0.230E-01    0.530E-01
RMM:   6    -0.463676336197E+03   -0.52750E-02   -0.60065E-03  2985   0.139E-01    0.920E-01
RMM:   7    -0.463671944831E+03    0.43914E-02   -0.27252E-03  2872   0.986E-02    0.549E-01
RMM:   8    -0.463670051726E+03    0.18931E-02   -0.10878E-03  2703   0.610E-02    0.238E-01
RMM:   9    -0.463670132122E+03   -0.80397E-04   -0.49924E-04  2364   0.437E-02
  18 F= -.46367013E+03 E0= -.46355132E+03  d E =-.167042E+00
 curvature:  -0.82 expect dE=-0.102E+00 dE for cont linesearch -0.667E-01
 ZBRENT: increasing intervall
 opt :   1.8196  next Energy=  -463.798666 (dE=-0.296E+00)
 bond charge predicted
       N       E                     dE             d eps       ncg     rms          rms(c)
DAV:   1    -0.463656425642E+03    0.13626E-01   -0.13029E+02  3040   0.258E+01    0.404E+00
RMM:   2    -0.467562868286E+03   -0.39064E+01   -0.33776E+00  3038   0.392E+00    0.245E+01
RMM:   3    -0.463702875936E+03    0.38600E+01   -0.75152E-01  3038   0.188E+00    0.168E+00
RMM:   4    -0.463799174079E+03   -0.96298E-01   -0.15847E-01  3038   0.886E-01    0.168E+00
RMM:   5    -0.463802140285E+03   -0.29662E-02   -0.40779E-02  3047   0.415E-01    0.193E+00
RMM:   6    -0.463792554585E+03    0.95857E-02   -0.20073E-02  3044   0.268E-01    0.123E+00
RMM:   7    -0.463795208790E+03   -0.26542E-02   -0.97313E-03  3034   0.190E-01    0.108E+00
RMM:   8    -0.463786919005E+03    0.82898E-02   -0.45868E-03  2961   0.127E-01    0.499E-01
RMM:   9    -0.463788023289E+03   -0.11043E-02   -0.28257E-03  2917   0.102E-01    0.623E-01
RMM:  10    -0.463786087244E+03    0.19360E-02   -0.98833E-04  2644   0.607E-02    0.324E-01
RMM:  11    -0.463785802881E+03    0.28436E-03   -0.41355E-04  2240   0.401E-02    0.134E-01
RMM:  12    -0.463785914987E+03   -0.11211E-03   -0.15177E-04  1821   0.234E-02    0.145E-01
RMM:  13    -0.463785759966E+03    0.15502E-03   -0.63648E-05  1675   0.158E-02    0.452E-02
RMM:  14    -0.463785832420E+03   -0.72454E-04   -0.50092E-05  1537   0.131E-02
  19 F= -.46378583E+03 E0= -.46366956E+03  d E =-.282742E+00
 curvature:  -1.58 expect dE=-0.228E-01 dE for cont linesearch -0.230E-02
 ZBRENT: extrapolating
 opt :   1.9880  next Energy=  -463.787921 (dE=-0.285E+00)
 bond charge predicted
       N       E                     dE             d eps       ncg     rms          rms(c)
DAV:   1    -0.463785072004E+03    0.68796E-03   -0.30929E+00  3260   0.401E+00    0.691E-01
RMM:   2    -0.463904535246E+03   -0.11946E+00   -0.97738E-02  3038   0.653E-01    0.427E+00
RMM:   3    -0.463781673189E+03    0.12286E+00   -0.21596E-02  3038   0.327E-01    0.251E-01
RMM:   4    -0.463787602443E+03   -0.59293E-02   -0.45598E-03  2968   0.159E-01    0.227E-01
RMM:   5    -0.463787796543E+03   -0.19410E-03   -0.11950E-03  2723   0.718E-02    0.230E-01
RMM:   6    -0.463787905784E+03   -0.10924E-03   -0.55961E-04  2419   0.429E-02    0.254E-01
RMM:   7    -0.463787743070E+03    0.16271E-03   -0.23925E-04  2023   0.300E-02    0.128E-01
RMM:   8    -0.463787665390E+03    0.77680E-04   -0.98819E-05  1711   0.190E-02
  20 F= -.46378767E+03 E0= -.46367193E+03  d E =-.284575E+00
 curvature:  -1.43 expect dE=-0.227E-01 dE for cont linesearch -0.474E-06
 trial: gam= 0.08223 g(F)=  0.158E-01 g(S)=  0.000E+00 ort =-0.374E-03 (trialstep = 0.543E+00)
 search vector abs. value=  0.186E-01
 bond charge predicted
       N       E                     dE             d eps       ncg     rms          rms(c)
DAV:   1    -0.463793386018E+03   -0.56429E-02   -0.14350E+00  3180   0.273E+00    0.348E-01
RMM:   2    -0.463800266855E+03   -0.68808E-02   -0.33261E-02  3033   0.388E-01    0.750E-01
RMM:   3    -0.463796613497E+03    0.36534E-02   -0.39790E-03  3012   0.141E-01    0.504E-01
RMM:   4    -0.463795147822E+03    0.14657E-02   -0.10527E-03  2676   0.696E-02    0.152E-01
RMM:   5    -0.463795551081E+03   -0.40326E-03   -0.31509E-04  2118   0.364E-02    0.219E-01
RMM:   6    -0.463795173925E+03    0.37716E-03   -0.13217E-04  1751   0.224E-02    0.779E-02
RMM:   7    -0.463795445807E+03   -0.27188E-03   -0.17629E-04  1883   0.235E-02    0.179E-01
RMM:   8    -0.463795265118E+03    0.18069E-03   -0.78864E-05  1669   0.163E-02    0.787E-02
RMM:   9    -0.463795242762E+03    0.22356E-04   -0.22821E-05  1380   0.996E-03
  21 F= -.46379524E+03 E0= -.46367957E+03  d E =-.757737E-02
 trial-energy change:   -0.007577  1 .order   -0.007456   -0.008592   -0.006319
 step:   2.0537(harm=  2.0537)  dis= 0.01675  next Energy=  -463.803908 (dE=-0.162E-01)
 bond charge predicted
       N       E                     dE             d eps       ncg     rms          rms(c)
DAV:   1    -0.463789831153E+03    0.54340E-02   -0.11106E+01  3058   0.759E+00    0.907E-01
RMM:   2    -0.463828430750E+03   -0.38600E-01   -0.24714E-01  3025   0.106E+00    0.158E+00
RMM:   3    -0.463808071498E+03    0.20359E-01   -0.26922E-02  3038   0.364E-01    0.935E-01
RMM:   4    -0.463805053182E+03    0.30183E-02   -0.59991E-03  3022   0.166E-01    0.455E-01
RMM:   5    -0.463804011594E+03    0.10416E-02   -0.11416E-03  2744   0.789E-02    0.205E-01
RMM:   6    -0.463806451786E+03   -0.24402E-02   -0.16086E-03  2768   0.712E-02    0.551E-01
RMM:   7    -0.463804230074E+03    0.22217E-02   -0.88007E-04  2660   0.530E-02    0.214E-01
RMM:   8    -0.463804093594E+03    0.13648E-03   -0.26111E-04  2022   0.316E-02    0.129E-01
RMM:   9    -0.463804045428E+03    0.48166E-04   -0.89060E-05  1707   0.184E-02
  22 F= -.46380405E+03 E0= -.46368857E+03  d E =-.163800E-01
 curvature:  -1.21 expect dE=-0.125E-02 dE for cont linesearch -0.279E-06
 trial: gam= 0.03770 g(F)=  0.103E-02 g(S)=  0.000E+00 ort =-0.656E-04 (trialstep = 0.845E+00)
 search vector abs. value=  0.105E-02
 bond charge predicted
       N       E                     dE             d eps       ncg     rms          rms(c)
DAV:   1    -0.463804768028E+03   -0.67443E-03   -0.19944E-01  3244   0.102E+00    0.269E-01
RMM:   2    -0.463823160981E+03   -0.18393E-01   -0.11504E-02  3033   0.209E-01    0.167E+00
RMM:   3    -0.463803550405E+03    0.19611E-01   -0.35631E-03  2979   0.127E-01    0.115E-01
RMM:   4    -0.463804655750E+03   -0.11053E-02   -0.70180E-04  2563   0.617E-02    0.879E-02
RMM:   5    -0.463804714798E+03   -0.59048E-04   -0.19528E-04  1900   0.273E-02
  23 F= -.46380471E+03 E0= -.46368937E+03  d E =-.669370E-03
 trial-energy change:   -0.000669  1 .order   -0.000733   -0.000868   -0.000597
 step:   2.7068(harm=  2.7068)  dis= 0.00565  next Energy=  -463.805436 (dE=-0.139E-02)
 bond charge predicted
       N       E                     dE             d eps       ncg     rms          rms(c)
DAV:   1    -0.463805274476E+03   -0.61873E-03   -0.96032E-01  3206   0.224E+00    0.601E-01
RMM:   2    -0.463894648635E+03   -0.89374E-01   -0.56287E-02  3038   0.462E-01    0.361E+00
RMM:   3    -0.463800451002E+03    0.94198E-01   -0.17489E-02  3037   0.281E-01    0.233E-01
RMM:   4    -0.463804599817E+03   -0.41488E-02   -0.34823E-03  2873   0.137E-01    0.176E-01
RMM:   5    -0.463805118086E+03   -0.51827E-03   -0.10395E-03  2660   0.628E-02    0.285E-01
RMM:   6    -0.463804705363E+03    0.41272E-03   -0.35940E-04  2204   0.358E-02    0.864E-02
RMM:   7    -0.463804798821E+03   -0.93457E-04   -0.11979E-04  1708   0.205E-02
  24 F= -.46380480E+03 E0= -.46368978E+03  d E =-.753393E-03
 curvature:  -1.39 expect dE=-0.915E-03 dE for cont linesearch -0.125E-03
 ZBRENT: interpolating
 opt :   2.1423  next Energy=  -463.804886 (dE=-0.840E-03)
 bond charge predicted
       N       E                     dE             d eps       ncg     rms          rms(c)
DAV:   1    -0.463804909573E+03   -0.20421E-03   -0.89471E-02  3260   0.683E-01    0.164E-01
RMM:   2    -0.463812210323E+03   -0.73008E-02   -0.44416E-03  2996   0.131E-01    0.107E+00
RMM:   3    -0.463804410528E+03    0.77998E-02   -0.13360E-03  2781   0.797E-02    0.759E-02
RMM:   4    -0.463804950308E+03   -0.53978E-03   -0.28371E-04  2097   0.398E-02    0.612E-02
RMM:   5    -0.463804963313E+03   -0.13005E-04   -0.72753E-05  1625   0.167E-02
  25 F= -.46380496E+03 E0= -.46368981E+03  d E =-.917885E-03
 curvature:  -0.97 expect dE=-0.502E-03 dE for cont linesearch -0.266E-04
 ZBRENT: interpolating
 opt :   1.5792  next Energy=  -463.805020 (dE=-0.975E-03)
 bond charge predicted
       N       E                     dE             d eps       ncg     rms          rms(c)
DAV:   1    -0.463804978764E+03   -0.28456E-04   -0.87698E-02  3204   0.675E-01    0.175E-01
RMM:   2    -0.463812953629E+03   -0.79749E-02   -0.47213E-03  2999   0.135E-01    0.113E+00
RMM:   3    -0.463804321134E+03    0.86325E-02   -0.14670E-03  2791   0.835E-02    0.661E-02
RMM:   4    -0.463804945596E+03   -0.62446E-03   -0.30313E-04  2130   0.417E-02    0.543E-02
RMM:   5    -0.463804994305E+03   -0.48709E-04   -0.75719E-05  1636   0.172E-02
  26 F= -.46380499E+03 E0= -.46368973E+03  d E =-.948877E-03
 curvature:  -2.08 expect dE=-0.665E-03 dE for cont linesearch -0.159E-04
 ZBRENT: interpolating
 opt :   1.7735  next Energy=  -463.805003 (dE=-0.958E-03)
 bond charge predicted
       N       E                     dE             d eps       ncg     rms          rms(c)
DAV:   1    -0.463805005274E+03   -0.59678E-04   -0.10740E-02  3092   0.237E-01    0.697E-02
RMM:   2    -0.463806192002E+03   -0.11867E-02   -0.71451E-04  2539   0.506E-02    0.456E-01
RMM:   3    -0.463804893370E+03    0.12986E-02   -0.26973E-04  1999   0.337E-02    0.350E-02
RMM:   4    -0.463805010161E+03   -0.11679E-03   -0.48935E-05  1533   0.172E-02    0.216E-02
RMM:   5    -0.463805019799E+03   -0.96378E-05   -0.13872E-05  1168   0.741E-03
  27 F= -.46380502E+03 E0= -.46368979E+03  d E =-.974371E-03
 curvature:  -1.14 expect dE=-0.386E-03 dE for cont linesearch -0.516E-05
 ZBRENT: bisectioning
 opt :   1.9579  next Energy=  -463.805031 (dE=-0.985E-03)
 bond charge predicted
       N       E                     dE             d eps       ncg     rms          rms(c)
DAV:   1    -0.463805030357E+03   -0.20196E-04   -0.94235E-03  2980   0.222E-01    0.634E-02
RMM:   2    -0.463806073027E+03   -0.10427E-02   -0.58621E-04  2449   0.471E-02    0.409E-01
RMM:   3    -0.463804912377E+03    0.11606E-02   -0.20757E-04  1919   0.306E-02    0.256E-02
RMM:   4    -0.463805020376E+03   -0.10800E-03   -0.38670E-05  1504   0.157E-02    0.174E-02
RMM:   5    -0.463805028928E+03   -0.85520E-05   -0.85589E-06  1095   0.657E-03
  28 F= -.46380503E+03 E0= -.46368985E+03  d E =-.983500E-03
 curvature:  -2.41 expect dE=-0.908E-03 dE for cont linesearch -0.115E-05
 trial: gam= 0.33268 g(F)=  0.376E-03 g(S)=  0.000E+00 ort = 0.224E-04 (trialstep = 0.107E+01)
 search vector abs. value=  0.508E-03
 bond charge predicted
       N       E                     dE             d eps       ncg     rms          rms(c)
DAV:   1    -0.463805180218E+03   -0.15984E-03   -0.15022E-01  3038   0.877E-01    0.102E-01
RMM:   2    -0.463805970816E+03   -0.79060E-03   -0.30940E-03  2858   0.119E-01    0.295E-01
RMM:   3    -0.463805433488E+03    0.53733E-03   -0.36190E-04  2133   0.436E-02    0.136E-01
RMM:   4    -0.463805360701E+03    0.72786E-04   -0.12485E-04  1801   0.236E-02
  29 F= -.46380536E+03 E0= -.46369031E+03  d E =-.331773E-03
 ZBRENT: can't locate minimum, use default step
 trial-energy change:   -0.000332  1 .order   -0.000372   -0.000410   -0.000335
 step:   4.2712(harm=  5.8406)  dis= 0.00605  next Energy=  -463.806150 (dE=-0.112E-02)
 bond charge predicted
       N       E                     dE             d eps       ncg     rms          rms(c)
DAV:   1    -0.463804062067E+03    0.13714E-02   -0.13480E+00  3038   0.263E+00    0.310E-01
RMM:   2    -0.463810859208E+03   -0.67971E-02   -0.27788E-02  3038   0.354E-01    0.825E-01
RMM:   3    -0.463806545150E+03    0.43141E-02   -0.31161E-03  2975   0.128E-01    0.411E-01
RMM:   4    -0.463805702160E+03    0.84299E-03   -0.10895E-03  2580   0.678E-02    0.128E-01
RMM:   5    -0.463805767689E+03   -0.65529E-04   -0.19084E-04  1861   0.296E-02
  30 F= -.46380577E+03 E0= -.46369123E+03  d E =-.738761E-03
 curvature:  -3.44 expect dE=-0.688E-03 dE for cont linesearch -0.409E-04
 ZBRENT: extrapolating
 opt :   5.3244  next Energy=  -463.805809 (dE=-0.780E-03)
 bond charge predicted
       N       E                     dE             d eps       ncg     rms          rms(c)
DAV:   1    -0.463805677881E+03    0.24279E-04   -0.14503E-01  3268   0.862E-01    0.186E-01
RMM:   2    -0.463811729094E+03   -0.60512E-02   -0.46683E-03  3007   0.138E-01    0.824E-01
RMM:   3    -0.463805563230E+03    0.61659E-02   -0.12716E-03  2730   0.688E-02    0.133E-01
RMM:   4    -0.463805707299E+03   -0.14407E-03   -0.28486E-04  2036   0.342E-02    0.110E-01
RMM:   5    -0.463805713565E+03   -0.62656E-05   -0.98048E-05  1705   0.190E-02
  31 F= -.46380571E+03 E0= -.46369132E+03  d E =-.684636E-03
 curvature:  -3.44 expect dE=-0.152E-02 dE for cont linesearch -0.147E-04
 trial: gam= 1.33716 g(F)=  0.441E-03 g(S)=  0.000E+00 ort =-0.465E-04 (trialstep = 0.796E+00)
 search vector abs. value=  0.122E-02
 bond charge predicted
       N       E                     dE             d eps       ncg     rms          rms(c)
DAV:   1    -0.463805634614E+03    0.72685E-04   -0.19775E-01  3218   0.100E+00    0.150E-01
RMM:   2    -0.463808239136E+03   -0.26045E-02   -0.49354E-03  2995   0.147E-01    0.562E-01
RMM:   3    -0.463805901132E+03    0.23380E-02   -0.72257E-04  2608   0.600E-02    0.178E-01
RMM:   4    -0.463805821403E+03    0.79729E-04   -0.23305E-04  1942   0.320E-02
  32 F= -.46380582E+03 E0= -.46369152E+03  d E =-.107838E-03
 trial-energy change:   -0.000108  1 .order   -0.000220   -0.000301   -0.000138
 step:   1.4726(harm=  1.4726)  dis= 0.00232  next Energy=  -463.805992 (dE=-0.279E-03)
 bond charge predicted
       N       E                     dE             d eps       ncg     rms          rms(c)
DAV:   1    -0.463805839757E+03    0.61375E-04   -0.14353E-01  3188   0.855E-01    0.167E-01
RMM:   2    -0.463809397203E+03   -0.35574E-02   -0.43399E-03  2980   0.133E-01    0.662E-01
RMM:   3    -0.463805989620E+03    0.34076E-02   -0.93997E-04  2705   0.632E-02    0.203E-01
RMM:   4    -0.463805866969E+03    0.12265E-03   -0.28210E-04  2047   0.346E-02    0.807E-02
RMM:   5    -0.463805916971E+03   -0.50002E-04   -0.80466E-05  1675   0.174E-02
  33 F= -.46380592E+03 E0= -.46369178E+03  d E =-.203406E-03
 curvature:  -2.38 expect dE=-0.965E-03 dE for cont linesearch -0.287E-04
 ZBRENT: increasing intervall
 opt :   2.8260  next Energy=  -463.806010 (dE=-0.297E-03)
 bond charge predicted
       N       E                     dE             d eps       ncg     rms          rms(c)
DAV:   1    -0.463805183878E+03    0.68309E-03   -0.57242E-01  3160   0.171E+00    0.252E-01
RMM:   2    -0.463812927717E+03   -0.77438E-02   -0.14340E-02  3037   0.249E-01    0.992E-01
RMM:   3    -0.463805947009E+03    0.69807E-02   -0.21531E-03  2892   0.104E-01    0.296E-01
RMM:   4    -0.463805676813E+03    0.27020E-03   -0.68196E-04  2424   0.551E-02    0.904E-02
RMM:   5    -0.463805880677E+03   -0.20386E-03   -0.16245E-04  1851   0.257E-02    0.159E-01
RMM:   6    -0.463805720176E+03    0.16050E-03   -0.70785E-05  1648   0.161E-02    0.745E-02
RMM:   7    -0.463805859706E+03   -0.13953E-03   -0.77710E-05  1686   0.158E-02    0.119E-01
RMM:   8    -0.463805726133E+03    0.13357E-03   -0.30375E-05  1477   0.109E-02    0.291E-02
RMM:   9    -0.463805728139E+03   -0.20051E-05   -0.70951E-06  1139   0.635E-03
  34 F= -.46380573E+03 E0= -.46369182E+03  d E =-.145737E-04
 curvature:  -7.75 expect dE=-0.349E-02 dE for cont linesearch -0.265E-03
 ZBRENT: bracketing found
 ZBRENT: interpolating
 opt :   1.9767  next Energy=  -463.805948 (dE=-0.234E-03)
 bond charge predicted
       N       E                     dE             d eps       ncg     rms          rms(c)
DAV:   1    -0.463805621961E+03    0.10417E-03   -0.22689E-01  3188   0.107E+00    0.143E-01
RMM:   2    -0.463807758922E+03   -0.21370E-02   -0.52456E-03  2982   0.152E-01    0.514E-01
RMM:   3    -0.463805953773E+03    0.18051E-02   -0.69504E-04  2582   0.598E-02    0.185E-01
RMM:   4    -0.463805837601E+03    0.11617E-03   -0.23693E-04  1947   0.322E-02    0.484E-02
RMM:   5    -0.463805861271E+03   -0.23669E-04   -0.36786E-05  1570   0.135E-02
  35 F= -.46380586E+03 E0= -.46369180E+03  d E =-.147706E-03
 curvature:  -0.89 expect dE=-0.370E-03 dE for cont linesearch -0.204E-04
 ZBRENT: interpolating
 opt :   1.6848  next Energy=  -463.805930 (dE=-0.216E-03)
 bond charge predicted
       N       E                     dE             d eps       ncg     rms          rms(c)
DAV:   1    -0.463805885125E+03   -0.47524E-04   -0.26677E-02  3180   0.368E-01    0.899E-02
RMM:   2    -0.463807315371E+03   -0.14302E-02   -0.10770E-03  2698   0.646E-02    0.496E-01
RMM:   3    -0.463805778337E+03    0.15370E-02   -0.36602E-04  2097   0.373E-02    0.776E-02
RMM:   4    -0.463805884485E+03   -0.10615E-03   -0.72678E-05  1575   0.192E-02    0.450E-02
RMM:   5    -0.463805888617E+03   -0.41313E-05   -0.24007E-05  1326   0.962E-03
  36 F= -.46380589E+03 E0= -.46369179E+03  d E =-.175052E-03
 curvature:  -0.57 expect dE=-0.236E-03 dE for cont linesearch -0.551E-05
 ZBRENT: interpolating
 opt :   1.5843  next Energy=  -463.805894 (dE=-0.181E-03)
 bond charge predicted
       N       E                     dE             d eps       ncg     rms          rms(c)
DAV:   1    -0.463805894865E+03   -0.10380E-04   -0.30951E-03  3003   0.125E-01    0.372E-02
RMM:   2    -0.463806187109E+03   -0.29224E-03   -0.16667E-04  1816   0.253E-02    0.207E-01
RMM:   3    -0.463805865008E+03    0.32210E-03   -0.53044E-05  1561   0.153E-02    0.310E-02
RMM:   4    -0.463805892799E+03   -0.27791E-04   -0.11055E-05  1284   0.842E-03
  37 F= -.46380589E+03 E0= -.46369178E+03  d E =-.179234E-03
 curvature:  -0.56 expect dE=-0.223E-03 dE for cont linesearch -0.635E-06
 trial: gam= 0.29643 g(F)=  0.397E-03 g(S)=  0.000E+00 ort =-0.371E-04 (trialstep = 0.954E+00)
 search vector abs. value=  0.482E-03
 bond charge predicted
       N       E                     dE             d eps       ncg     rms          rms(c)
DAV:   1    -0.463806079111E+03   -0.21410E-03   -0.11597E-01  3068   0.772E-01    0.122E-01
RMM:   2    -0.463806862488E+03   -0.78338E-03   -0.31855E-03  2857   0.115E-01    0.287E-01
RMM:   3    -0.463806324648E+03    0.53784E-03   -0.43656E-04  2242   0.459E-02    0.188E-01
RMM:   4    -0.463806131503E+03    0.19315E-03   -0.13560E-04  1805   0.253E-02    0.337E-02
RMM:   5    -0.463806185137E+03   -0.53634E-04   -0.26784E-05  1519   0.115E-02
  38 F= -.46380619E+03 E0= -.46369208E+03  d E =-.292338E-03
 trial-energy change:   -0.000292  1 .order   -0.000290   -0.000368   -0.000212
 step:   2.2537(harm=  2.2537)  dis= 0.00128  next Energy=  -463.806328 (dE=-0.435E-03)
 bond charge predicted
       N       E                     dE             d eps       ncg     rms          rms(c)
DAV:   1    -0.463806101042E+03    0.30461E-04   -0.21517E-01  3046   0.105E+00    0.176E-01
RMM:   2    -0.463807764109E+03   -0.16631E-02   -0.60408E-03  2950   0.158E-01    0.438E-01
RMM:   3    -0.463806565762E+03    0.11983E-02   -0.88458E-04  2705   0.655E-02    0.274E-01
RMM:   4    -0.463806173356E+03    0.39241E-03   -0.28981E-04  1998   0.367E-02    0.513E-02
RMM:   5    -0.463806281863E+03   -0.10851E-03   -0.58510E-05  1676   0.169E-02    0.870E-02
RMM:   6    -0.463806239113E+03    0.42750E-04   -0.24648E-05  1473   0.982E-03
  39 F= -.46380624E+03 E0= -.46369213E+03  d E =-.346314E-03
 curvature:  -1.41 expect dE=-0.559E-04 dE for cont linesearch -0.241E-05
 trial: gam= 0.09763 g(F)=  0.397E-04 g(S)=  0.000E+00 ort =-0.287E-04 (trialstep = 0.121E+01)
 search vector abs. value=  0.387E-04
 reached required accuracy - stopping structural energy minimisation
 PROFILE, used timers:     293
