<?xml version="1.0" encoding="ISO-8859-1"?>
<modeling>
 <generator>
  <i name="program" type="string">vasp </i>
  <i name="version" type="string">6.3.2  </i>
  <i name="subversion" type="string">27Jun22 (build Mar 15 2023 15:45:48) complex                          parallel </i>
  <i name="platform" type="string">LinuxIFC </i>
  <i name="date" type="string">2024 07 24 </i>
  <i name="time" type="string">09:05:32 </i>
 </generator>
 <incar>
  <i type="string" name="SYSTEM">ni3al</i>
  <i type="int" name="ISTART">     0</i>
  <i type="string" name="PREC">Accurate</i>
  <i type="string" name="ALGO">Fast</i>
  <i name="AMIN">      0.01000000</i>
  <i type="int" name="ICHARG">     2</i>
  <i type="int" name="NELM">   150</i>
  <i type="int" name="IBRION">     2</i>
  <i name="EDIFF">      0.00010000</i>
  <i name="EDIFFG">     -0.02000000</i>
  <i type="int" name="NSW">   300</i>
  <i type="int" name="ISIF">     2</i>
  <i name="ENCUT">    530.00000000</i>
  <i type="string" name="LREAL">Auto</i>
  <i type="int" name="ISMEAR">     0</i>
  <i name="SIGMA">      0.10000000</i>
  <i type="int" name="LMAXMIX">     4</i>
  <i type="logical" name="LWAVE"> F  </i>
  <i type="logical" name="LCHARG"> F  </i>
 </incar>
 <primitive_cell>
  <structure name="primitive_cell" >
   <crystal>
    <varray name="basis" >
     <v>      -4.80745100       0.00000000       0.00000000 </v>
     <v>       2.40372550      -4.16337450       0.00000000 </v>
     <v>       0.00000000       0.00000000      21.56058800 </v>
    </varray>
    <i name="volume">    431.53988851 </i>
    <varray name="rec_basis" >
     <v>      -0.20801044      -0.12009489       0.00000000 </v>
     <v>       0.00000000      -0.24018978       0.00000000 </v>
     <v>       0.00000000       0.00000000       0.04638092 </v>
    </varray>
   </crystal>
   <varray name="positions" >
    <v>       0.66666700       0.02715800       0.00000000 </v>
    <v>       0.30617400       0.00000000       0.10142900 </v>
    <v>       0.36049100       0.33333400       0.00000000 </v>
    <v>       0.97284200       0.63950800       0.00000000 </v>
    <v>       0.69382500       0.69382600       0.10142900 </v>
    <v>       0.99999900       0.30617400       0.10142900 </v>
    <v>       0.33333300       0.36049000       0.20285800 </v>
    <v>       0.97284300       0.33333400       0.30428600 </v>
    <v>       0.02715700       0.66666600       0.20285800 </v>
    <v>       0.63950800       0.97284000       0.20285800 </v>
    <v>       0.36049200       0.02716000       0.30428600 </v>
    <v>       0.66666700       0.63951000       0.30428600 </v>
    <v>       0.33333300       0.66666600       0.14070600 </v>
    <v>       0.66666700       0.33333400       0.06215200 </v>
    <v>       0.00000000       0.00000000       0.03927700 </v>
    <v>       0.33333300       0.66666600       0.26500900 </v>
    <v>       0.66666700       0.33333400       0.24213400 </v>
    <v>       0.00000000       0.00000000       0.16358100 </v>
   </varray>
  </structure>
  <varray name="primitive_index" >
   <v type="int" >        1 </v>
   <v type="int" >        4 </v>
   <v type="int" >        6 </v>
   <v type="int" >        7 </v>
   <v type="int" >        9 </v>
   <v type="int" >       11 </v>
   <v type="int" >       14 </v>
   <v type="int" >       15 </v>
   <v type="int" >       18 </v>
   <v type="int" >       19 </v>
   <v type="int" >       22 </v>
   <v type="int" >       23 </v>
   <v type="int" >       50 </v>
   <v type="int" >       52 </v>
   <v type="int" >       53 </v>
   <v type="int" >       56 </v>
   <v type="int" >       58 </v>
   <v type="int" >       59 </v>
  </varray>
 </primitive_cell>
 <kpoints>
  <generation param="Gamma">
   <v type="int" name="divisions">       3        4        1 </v>
   <v name="usershift">      0.00000000       0.00000000       0.00000000 </v>
   <v name="genvec1">      0.33333333       0.00000000       0.00000000 </v>
   <v name="genvec2">      0.00000000       0.25000000       0.00000000 </v>
   <v name="genvec3">      0.00000000       0.00000000       1.00000000 </v>
   <v name="shift">      0.00000000       0.00000000       0.00000000 </v>
  </generation>
  <varray name="kpointlist" >
   <v>       0.00000000       0.00000000       0.00000000 </v>
   <v>       0.33333333       0.00000000       0.00000000 </v>
   <v>       0.00000000       0.25000000       0.00000000 </v>
   <v>       0.33333333       0.25000000       0.00000000 </v>
   <v>      -0.33333333       0.25000000       0.00000000 </v>
   <v>       0.00000000       0.50000000       0.00000000 </v>
   <v>       0.33333333       0.50000000       0.00000000 </v>
  </varray>
  <varray name="weights" >
   <v>       0.08333333 </v>
   <v>       0.16666667 </v>
   <v>       0.16666667 </v>
   <v>       0.16666667 </v>
   <v>       0.16666667 </v>
   <v>       0.08333333 </v>
   <v>       0.16666667 </v>
  </varray>
 </kpoints>
 <parameters>
  <separator name="general" >
   <i type="string" name="SYSTEM">ni3al</i>
   <i type="logical" name="LCOMPAT"> F  </i>
  </separator>
  <separator name="electronic" >
   <i type="string" name="PREC">accura</i>
   <i name="ENMAX">    530.00000000</i>
   <i name="ENAUG">    605.39200000</i>
   <i name="EDIFF">      0.00010000</i>
   <i type="int" name="IALGO">    68</i>
   <i type="int" name="IWAVPR">    11</i>
   <i type="int" name="NBANDS">   217</i>
   <i type="int" name="NBANDSLOW">    -1</i>
   <i type="int" name="NBANDSHIGH">    -1</i>
   <i name="NELECT">    360.00000000</i>
   <i type="int" name="TURBO">     0</i>
   <i type="int" name="IRESTART">     0</i>
   <i type="int" name="NREBOOT">     0</i>
   <i type="int" name="NMIN">     0</i>
   <i name="EREF">      0.00000000</i>
   <separator name="electronic smearing" >
    <i type="int" name="ISMEAR">     0</i>
    <i name="SIGMA">      0.10000000</i>
    <i name="KSPACING">      0.50000000</i>
    <i type="logical" name="KGAMMA"> T  </i>
    <i type="logical" name="KBLOWUP"> T  </i>
   </separator>
   <separator name="electronic projectors" >
    <i type="logical" name="LREAL"> T  </i>
    <v name="ROPT">     -0.00025000     -0.00025000</v>
    <i type="int" name="LMAXPAW">  -100</i>
    <i type="int" name="LMAXMIX">     4</i>
    <i type="logical" name="NLSPLINE"> F  </i>
   </separator>
   <separator name="electronic startup" >
    <i type="int" name="ISTART">     0</i>
    <i type="int" name="ICHARG">     2</i>
    <i type="int" name="INIWAV">     1</i>
   </separator>
   <separator name="electronic spin" >
    <i type="int" name="ISPIN">     1</i>
    <i type="logical" name="LNONCOLLINEAR"> F  </i>
    <v name="MAGMOM">      1.00000000      1.00000000      1.00000000      1.00000000      1.00000000      1.00000000      1.00000000      1.00000000      1.00000000      1.00000000      1.00000000      1.00000000      1.00000000      1.00000000      1.00000000      1.00000000      1.00000000      1.00000000      1.00000000      1.00000000
      1.00000000      1.00000000      1.00000000      1.00000000      1.00000000      1.00000000      1.00000000      1.00000000      1.00000000      1.00000000      1.00000000      1.00000000      1.00000000      1.00000000      1.00000000      1.00000000      1.00000000      1.00000000      1.00000000      1.00000000
      1.00000000      1.00000000      1.00000000      1.00000000      1.00000000      1.00000000      1.00000000      1.00000000      1.00000000      1.00000000      1.00000000      1.00000000      1.00000000      1.00000000      1.00000000      1.00000000      1.00000000      1.00000000      1.00000000      1.00000000
      1.00000000      1.00000000      1.00000000      1.00000000      1.00000000      1.00000000      1.00000000      1.00000000      1.00000000      1.00000000      1.00000000      1.00000000</v>
    <i name="NUPDOWN">     -1.00000000</i>
    <i type="logical" name="LSORBIT"> F  </i>
    <v name="SAXIS">      0.00000000      0.00000000      1.00000000</v>
    <i type="logical" name="LSPIRAL"> F  </i>
    <v name="QSPIRAL">      0.00000000      0.00000000      0.00000000</v>
    <i type="logical" name="LZEROZ"> F  </i>
   </separator>
   <separator name="electronic exchange-correlation" >
    <i type="logical" name="LASPH"> F  </i>
    <i type="logical" name="LMETAGGA"> F  </i>
   </separator>
   <separator name="electronic convergence" >
    <i type="int" name="NELM">   150</i>
    <i type="int" name="NELMDL">    -5</i>
    <i type="int" name="NELMIN">     2</i>
    <i name="ENINI">    530.00000000</i>
    <separator name="electronic convergence detail" >
     <i type="logical" name="LDIAG"> T  </i>
     <i type="logical" name="LSUBROT"> F  </i>
     <i name="WEIMIN">      0.00100000</i>
     <i name="EBREAK">      0.00000012</i>
     <i name="DEPER">      0.30000000</i>
     <i type="int" name="NRMM">     4</i>
     <i name="TIME">      0.40000000</i>
    </separator>
   </separator>
   <separator name="electronic mixer" >
    <i name="AMIX">      0.40000000</i>
    <i name="BMIX">      1.00000000</i>
    <i name="AMIN">      0.01000000</i>
    <i name="AMIX_MAG">      1.60000000</i>
    <i name="BMIX_MAG">      1.00000000</i>
    <separator name="electronic mixer details" >
     <i type="int" name="IMIX">     4</i>
     <i type="logical" name="MIXFIRST"> F  </i>
     <i type="int" name="MAXMIX">   -45</i>
     <i name="WC">    100.00000000</i>
     <i type="int" name="INIMIX">     1</i>
     <i type="int" name="MIXPRE">     1</i>
     <i type="int" name="MREMOVE">     5</i>
    </separator>
   </separator>
   <separator name="electronic dipolcorrection" >
    <i type="logical" name="LDIPOL"> F  </i>
    <i type="logical" name="LMONO"> F  </i>
    <i type="int" name="IDIPOL">     0</i>
    <i name="EPSILON">      1.00000000</i>
    <v name="DIPOL">   -100.00000000   -100.00000000   -100.00000000</v>
    <i name="EFIELD">      0.00000000</i>
   </separator>
  </separator>
  <separator name="grids" >
   <i type="int" name="NGX">    72</i>
   <i type="int" name="NGY">    64</i>
   <i type="int" name="NGZ">   162</i>
   <i type="int" name="NGXF">   144</i>
   <i type="int" name="NGYF">   128</i>
   <i type="int" name="NGZF">   324</i>
   <i type="logical" name="ADDGRID"> F  </i>
  </separator>
  <separator name="ionic" >
   <i type="int" name="NSW">   300</i>
   <i type="int" name="IBRION">     2</i>
   <i type="int" name="MDALGO">     0</i>
   <i type="int" name="ISIF">     2</i>
   <i name="PSTRESS">      0.00000000</i>
   <i name="EDIFFG">     -0.02000000</i>
   <i type="int" name="NFREE">     1</i>
   <i name="POTIM">      0.50000000</i>
   <i name="SMASS">     -3.00000000</i>
   <i name="SCALEE">      1.00000000</i>
  </separator>
  <separator name="ionic md" >
   <i name="TEBEG">      0.00010000</i>
   <i name="TEEND">      0.00010000</i>
   <i type="int" name="NBLOCK">     1</i>
   <i type="int" name="KBLOCK">   300</i>
   <i type="int" name="NPACO">   256</i>
   <i name="APACO">     10.00000000</i>
  </separator>
  <separator name="symmetry" >
   <i type="int" name="ISYM">     2</i>
   <i name="SYMPREC">      0.00001000</i>
  </separator>
  <separator name="dos" >
   <i type="int" name="LORBIT">     0</i>
   <v name="RWIGS">     -1.00000000     -1.00000000</v>
   <i type="int" name="NEDOS">   301</i>
   <i name="EMIN">     10.00000000</i>
   <i name="EMAX">    -10.00000000</i>
   <i name="EFERMI">      0.00000000</i>
  </separator>
  <separator name="writing" >
   <i type="int" name="NWRITE">     2</i>
   <i type="logical" name="LWAVE"> F  </i>
   <i type="logical" name="LDOWNSAMPLE"> F  </i>
   <i type="logical" name="LCHARG"> F  </i>
   <i type="logical" name="LPARD"> F  </i>
   <i type="logical" name="LVTOT"> F  </i>
   <i type="logical" name="LVHAR"> F  </i>
   <i type="logical" name="LELF"> F  </i>
   <i type="logical" name="LOPTICS"> F  </i>
   <v name="STM">      0.00000000      0.00000000      0.00000000      0.00000000      0.00000000      0.00000000      0.00000000</v>
  </separator>
  <separator name="performance" >
   <i type="int" name="NPAR">     1</i>
   <i type="int" name="NSIM">     4</i>
   <i type="int" name="NBLK">    -1</i>
   <i type="logical" name="LPLANE"> T  </i>
   <i type="logical" name="LSCALAPACK"> T  </i>
   <i type="logical" name="LSCAAWARE"> F  </i>
   <i type="logical" name="LSCALU"> F  </i>
   <i type="logical" name="LASYNC"> F  </i>
   <i type="logical" name="LORBITALREAL"> F  </i>
  </separator>
  <separator name="miscellaneous" >
   <i type="int" name="IDIOT">     3</i>
   <i type="int" name="PHON_NSTRUCT">    -1</i>
   <i type="logical" name="LMUSIC"> F  </i>
   <v name="POMASS">     16.00000000     26.98100000</v>
   <v name="DARWINR">      0.00000000      0.00000000</v>
   <v name="DARWINV">      1.00000000      1.00000000</v>
   <i type="logical" name="LCORR"> T  </i>
  </separator>
  <i type="logical" name="GGA_COMPAT"> T  </i>
  <i type="logical" name="LBERRY"> F  </i>
  <i type="int" name="ICORELEVEL">     0</i>
  <i type="logical" name="LDAU"> F  </i>
  <i type="int" name="I_CONSTRAINED_M">     0</i>
  <separator name="electronic exchange-correlation" >
   <i type="string" name="GGA">--</i>
   <i type="int" name="VOSKOWN">     0</i>
   <i type="logical" name="LHFCALC"> F  </i>
   <i type="string" name="PRECFOCK"></i>
   <i type="logical" name="LSYMGRAD"> F  </i>
   <i type="logical" name="LHFONE"> F  </i>
   <i type="logical" name="LRHFCALC"> F  </i>
   <i type="logical" name="LTHOMAS"> F  </i>
   <i type="logical" name="LMODELHF"> F  </i>
   <i type="logical" name="LFOCKACE"> F  </i>
   <i name="ENCUT4O">     -1.00000000</i>
   <i type="int" name="EXXOEP">     0</i>
   <i type="int" name="FOURORBIT">     0</i>
   <i name="AEXX">      0.00000000</i>
   <i name="HFALPHA">      0.00000000</i>
   <i name="MCALPHA">      0.00000000</i>
   <i name="ALDAX">      1.00000000</i>
   <i name="AGGAX">      1.00000000</i>
   <i name="ALDAC">      1.00000000</i>
   <i name="AGGAC">      1.00000000</i>
   <i type="int" name="NKREDX">     1</i>
   <i type="int" name="NKREDY">     1</i>
   <i type="int" name="NKREDZ">     1</i>
   <i type="logical" name="SHIFTRED"> F  </i>
   <i type="logical" name="ODDONLY"> F  </i>
   <i type="logical" name="EVENONLY"> F  </i>
   <i type="int" name="LMAXFOCK">     0</i>
   <i type="int" name="NMAXFOCKAE">     0</i>
   <i type="logical" name="LFOCKAEDFT"> F  </i>
   <i name="HFSCREEN">      0.00000000</i>
   <i name="HFSCREENC">      0.00000000</i>
   <i type="int" name="NBANDSGWLOW">     0</i>
  </separator>
  <separator name="vdW DFT" >
   <i type="logical" name="LUSE_VDW"> F  </i>
   <i name="Zab_VDW">     -0.84910000</i>
   <i name="PARAM1">      0.12340000</i>
   <i name="PARAM2">      1.00000000</i>
   <i name="PARAM3">      0.00000000</i>
  </separator>
  <separator name="model GW" >
   <i type="int" name="MODEL_GW">     0</i>
   <i name="MODEL_EPS0">     14.38466295</i>
   <i name="MODEL_ALPHA">      1.00000000</i>
  </separator>
  <separator name="linear response parameters" >
   <i type="logical" name="LEPSILON"> F  </i>
   <i type="logical" name="LRPA"> F  </i>
   <i type="logical" name="LNABLA"> F  </i>
   <i type="logical" name="LVEL"> F  </i>
   <i name="CSHIFT">      0.10000000</i>
   <i name="OMEGAMAX">     -1.00000000</i>
   <i name="DEG_THRESHOLD">      0.00200000</i>
   <i name="RTIME">     -0.10000000</i>
   <i name="WPLASMAI">      0.00000000</i>
   <v name="DFIELD">      0.00000000      0.00000000      0.00000000</v>
   <v name="WPLASMA">      0.00000000      0.00000000      0.00000000      0.00000000      0.00000000      0.00000000      0.00000000      0.00000000      0.00000000</v>
  </separator>
  <separator name="orbital magnetization" >
   <i type="logical" name="NUCIND"> F  </i>
   <v name="MAGPOS">      0.00000000      0.00000000      0.00000000</v>
   <i type="logical" name="LNICSALL"> T  </i>
   <i type="logical" name="ORBITALMAG"> F  </i>
   <i type="logical" name="LMAGBLOCH"> F  </i>
   <i type="logical" name="LCHIMAG"> F  </i>
   <i type="logical" name="LGAUGE"> T  </i>
   <i type="int" name="MAGATOM">     0</i>
   <v name="MAGDIPOL">      0.00000000      0.00000000      0.00000000</v>
   <v name="AVECCONST">      0.00000000      0.00000000      0.00000000</v>
  </separator>
  <separator name="response functions" >
   <i type="logical" name="LFINITE_TEMPERATURE"> F  </i>
   <i type="logical" name="LADDER"> F  </i>
   <i type="logical" name="LRPAFORCE"> F  </i>
   <i type="logical" name="LFXC"> F  </i>
   <i type="logical" name="LHARTREE"> T  </i>
   <i type="int" name="IBSE">     0</i>
   <v type="int" name="KPOINT">    -1     0     0     0</v>
   <i type="logical" name="LTCTC"> F  </i>
   <i type="logical" name="LTCTE"> F  </i>
   <i type="logical" name="LTETE"> F  </i>
   <i type="logical" name="LTRIPLET"> F  </i>
   <i type="logical" name="LFXCEPS"> F  </i>
   <i type="logical" name="LFXHEG"> F  </i>
   <i type="int" name="NATURALO">     2</i>
   <i type="logical" name="LHOLEGF"> F  </i>
   <i type="logical" name="L2ORDER"> F  </i>
   <i type="logical" name="LDMP1"> F  </i>
   <i type="logical" name="LMP2LT"> F  </i>
   <i type="logical" name="LSMP2LT"> F  </i>
   <i type="logical" name="LGWLF"> F  </i>
   <i name="ENCUTGW">     -2.00000000</i>
   <i name="ENCUTGWSOFT">     -2.00000000</i>
   <i name="ENCUTLF">     -1.00000000</i>
   <i type="logical" name="LESF_SPLINES"> F  </i>
   <i type="int" name="LMAXMP2">    -1</i>
   <i name="SCISSOR">      0.00000000</i>
   <i type="int" name="NOMEGA">     0</i>
   <i type="int" name="NOMEGAR">     0</i>
   <i type="int" name="NBANDSGW">    -1</i>
   <i type="int" name="NBANDSO">    -1</i>
   <i type="int" name="NBANDSV">    -1</i>
   <i type="int" name="NELMGW">     1</i>
   <i type="int" name="NELMHF">     1</i>
   <i type="int" name="DIM">     3</i>
   <i type="int" name="IESPILON">     4</i>
   <i type="int" name="ANTIRES">     0</i>
   <i name="OMEGAMAX">    -30.00000000</i>
   <i name="OMEGAMIN">    -30.00000000</i>
   <i name="OMEGATL">   -200.00000000</i>
   <i type="int" name="OMEGAGRID">     0</i>
   <i name="CSHIFT">     -0.10000000</i>
   <i type="logical" name="LSELFENERGY"> F  </i>
   <i type="logical" name="LSPECTRAL"> F  </i>
   <i type="logical" name="LSPECTRALGW"> F  </i>
   <i type="logical" name="LSINGLES"> F  </i>
   <i type="logical" name="LFERMIGW"> F  </i>
   <i type="logical" name="ODDONLYGW"> F  </i>
   <i type="logical" name="EVENONLYGW"> F  </i>
   <i type="int" name="NKREDLFX">     1</i>
   <i type="int" name="NKREDLFY">     1</i>
   <i type="int" name="NKREDLFZ">     1</i>
   <i type="int" name="MAXMEM">  2800</i>
   <i type="int" name="TELESCOPE">     0</i>
   <i type="int" name="NTAUPAR">    -1</i>
   <i type="int" name="NOMEGAPAR">    -1</i>
   <i name="DAMP_NEWTON">      0.80000001</i>
   <i name="LAMBDA">      1.00000000</i>
  </separator>
  <separator name="External order field" >
   <i name="OFIELD_KAPPA">      0.00000000</i>
   <v name="OFIELD_K">      0.00000000      0.00000000      0.00000000</v>
   <i name="OFIELD_Q6_NEAR">      0.00000000</i>
   <i name="OFIELD_Q6_FAR">      0.00000000</i>
   <i name="OFIELD_A">      0.00000000</i>
  </separator>
  <separator name="optional k-points parameters" >
   <i type="int" name="KPOINTS_OPT_MODE">     1</i>
   <i type="logical" name="LKPOINTS_OPT"> F  </i>
  </separator>
  <separator name="solvation model" >
   <i type="logical" name="LSOL"> F  </i>
  </separator>
 </parameters>
 <atominfo>
  <atoms>      72 </atoms>
  <types>       2 </types>
  <array name="atoms" >
   <dimension dim="1">ion</dimension>
   <field type="string">element</field>
   <field type="int">atomtype</field>
   <set>
    <rc><c>O </c><c>   1</c></rc>
    <rc><c>O </c><c>   1</c></rc>
    <rc><c>O </c><c>   1</c></rc>
    <rc><c>O </c><c>   1</c></rc>
    <rc><c>O </c><c>   1</c></rc>
    <rc><c>O </c><c>   1</c></rc>
    <rc><c>O </c><c>   1</c></rc>
    <rc><c>O </c><c>   1</c></rc>
    <rc><c>O </c><c>   1</c></rc>
    <rc><c>O </c><c>   1</c></rc>
    <rc><c>O </c><c>   1</c></rc>
    <rc><c>O </c><c>   1</c></rc>
    <rc><c>O </c><c>   1</c></rc>
    <rc><c>O </c><c>   1</c></rc>
    <rc><c>O </c><c>   1</c></rc>
    <rc><c>O </c><c>   1</c></rc>
    <rc><c>O </c><c>   1</c></rc>
    <rc><c>O </c><c>   1</c></rc>
    <rc><c>O </c><c>   1</c></rc>
    <rc><c>O </c><c>   1</c></rc>
    <rc><c>O </c><c>   1</c></rc>
    <rc><c>O </c><c>   1</c></rc>
    <rc><c>O </c><c>   1</c></rc>
    <rc><c>O </c><c>   1</c></rc>
    <rc><c>O </c><c>   1</c></rc>
    <rc><c>O </c><c>   1</c></rc>
    <rc><c>O </c><c>   1</c></rc>
    <rc><c>O </c><c>   1</c></rc>
    <rc><c>O </c><c>   1</c></rc>
    <rc><c>O </c><c>   1</c></rc>
    <rc><c>O </c><c>   1</c></rc>
    <rc><c>O </c><c>   1</c></rc>
    <rc><c>O </c><c>   1</c></rc>
    <rc><c>O </c><c>   1</c></rc>
    <rc><c>O </c><c>   1</c></rc>
    <rc><c>O </c><c>   1</c></rc>
    <rc><c>O </c><c>   1</c></rc>
    <rc><c>O </c><c>   1</c></rc>
    <rc><c>O </c><c>   1</c></rc>
    <rc><c>O </c><c>   1</c></rc>
    <rc><c>O </c><c>   1</c></rc>
    <rc><c>O </c><c>   1</c></rc>
    <rc><c>O </c><c>   1</c></rc>
    <rc><c>O </c><c>   1</c></rc>
    <rc><c>O </c><c>   1</c></rc>
    <rc><c>O </c><c>   1</c></rc>
    <rc><c>O </c><c>   1</c></rc>
    <rc><c>O </c><c>   1</c></rc>
    <rc><c>Al</c><c>   2</c></rc>
    <rc><c>Al</c><c>   2</c></rc>
    <rc><c>Al</c><c>   2</c></rc>
    <rc><c>Al</c><c>   2</c></rc>
    <rc><c>Al</c><c>   2</c></rc>
    <rc><c>Al</c><c>   2</c></rc>
    <rc><c>Al</c><c>   2</c></rc>
    <rc><c>Al</c><c>   2</c></rc>
    <rc><c>Al</c><c>   2</c></rc>
    <rc><c>Al</c><c>   2</c></rc>
    <rc><c>Al</c><c>   2</c></rc>
    <rc><c>Al</c><c>   2</c></rc>
    <rc><c>Al</c><c>   2</c></rc>
    <rc><c>Al</c><c>   2</c></rc>
    <rc><c>Al</c><c>   2</c></rc>
    <rc><c>Al</c><c>   2</c></rc>
    <rc><c>Al</c><c>   2</c></rc>
    <rc><c>Al</c><c>   2</c></rc>
    <rc><c>Al</c><c>   2</c></rc>
    <rc><c>Al</c><c>   2</c></rc>
    <rc><c>Al</c><c>   2</c></rc>
    <rc><c>Al</c><c>   2</c></rc>
    <rc><c>Al</c><c>   2</c></rc>
    <rc><c>Al</c><c>   2</c></rc>
   </set>
  </array>
  <array name="atomtypes" >
   <dimension dim="1">type</dimension>
   <field type="int">atomspertype</field>
   <field type="string">element</field>
   <field>mass</field>
   <field>valence</field>
   <field type="string">pseudopotential</field>
   <set>
    <rc><c>  48</c><c>O </c><c>     16.00000000</c><c>      6.00000000</c><c>  PAW_PBE O 08Apr2002                   </c></rc>
    <rc><c>  24</c><c>Al</c><c>     26.98100000</c><c>      3.00000000</c><c>  PAW_PBE Al 04Jan2001                  </c></rc>
   </set>
  </array>
 </atominfo>
 <structure name="initialpos" >
  <crystal>
   <varray name="basis" >
    <v>       9.61490200       0.00000000       0.00000000 </v>
    <v>       0.00000000       8.32674900       0.00000000 </v>
    <v>       0.00000000       0.00000000      21.56058800 </v>
   </varray>
   <i name="volume">   1726.15955402 </i>
   <varray name="rec_basis" >
    <v>       0.10400522       0.00000000       0.00000000 </v>
    <v>       0.00000000       0.12009489       0.00000000 </v>
    <v>       0.00000000       0.00000000       0.04638092 </v>
   </varray>
  </crystal>
  <varray name="positions" >
   <v>       0.17345600       0.98642100       0.00000000 </v>
   <v>       0.42345600       0.48642100       0.00000000 </v>
   <v>       0.09691200       0.50000000       0.10142900 </v>
   <v>       0.34691300       0.00000000       0.10142900 </v>
   <v>       0.15308800       0.33333300       0.00000000 </v>
   <v>       0.40308800       0.83333300       0.00000000 </v>
   <v>       0.17345600       0.68024600       0.00000000 </v>
   <v>       0.42345600       0.18024500       0.00000000 </v>
   <v>       0.07654400       0.15308700       0.10142900 </v>
   <v>       0.32654400       0.65308700       0.10142900 </v>
   <v>       0.07654400       0.84691300       0.10142900 </v>
   <v>       0.32654400       0.34691300       0.10142900 </v>
   <v>       0.17345600       0.31975500       0.20285800 </v>
   <v>       0.42345600       0.81975500       0.20285800 </v>
   <v>       0.09691200       0.83333300       0.30428600 </v>
   <v>       0.34691300       0.33333300       0.30428600 </v>
   <v>       0.15308700       0.66666700       0.20285800 </v>
   <v>       0.40308800       0.16666700       0.20285800 </v>
   <v>       0.17345600       0.01358000       0.20285800 </v>
   <v>       0.42345600       0.51358000       0.20285800 </v>
   <v>       0.07654400       0.48642100       0.30428600 </v>
   <v>       0.32654400       0.98642000       0.30428600 </v>
   <v>       0.07654400       0.18024500       0.30428600 </v>
   <v>       0.32654400       0.68024600       0.30428600 </v>
   <v>       0.67345600       0.98642100       0.00000000 </v>
   <v>       0.92345600       0.48642100       0.00000000 </v>
   <v>       0.59691300       0.50000000       0.10142900 </v>
   <v>       0.84691300       0.00000000       0.10142900 </v>
   <v>       0.65308800       0.33333300       0.00000000 </v>
   <v>       0.90308800       0.83333300       0.00000000 </v>
   <v>       0.67345600       0.68024500       0.00000000 </v>
   <v>       0.92345600       0.18024500       0.00000000 </v>
   <v>       0.57654400       0.15308700       0.10142900 </v>
   <v>       0.82654400       0.65308700       0.10142900 </v>
   <v>       0.57654400       0.84691300       0.10142900 </v>
   <v>       0.82654400       0.34691300       0.10142900 </v>
   <v>       0.67345600       0.31975500       0.20285800 </v>
   <v>       0.92345600       0.81975500       0.20285800 </v>
   <v>       0.59691300       0.83333300       0.30428600 </v>
   <v>       0.84691300       0.33333300       0.30428600 </v>
   <v>       0.65308800       0.66666700       0.20285800 </v>
   <v>       0.90308800       0.16666700       0.20285800 </v>
   <v>       0.67345600       0.01358000       0.20285800 </v>
   <v>       0.92345600       0.51357900       0.20285800 </v>
   <v>       0.57654400       0.48642000       0.30428600 </v>
   <v>       0.82654400       0.98642000       0.30428600 </v>
   <v>       0.57654400       0.18024500       0.30428600 </v>
   <v>       0.82654400       0.68024600       0.30428600 </v>
   <v>       0.00000000       0.66666700       0.14070600 </v>
   <v>       0.25000000       0.16666700       0.14070600 </v>
   <v>       0.00000000       0.33333300       0.06215200 </v>
   <v>       0.25000000       0.83333300       0.06215200 </v>
   <v>       0.00000000       0.00000000       0.03927700 </v>
   <v>       0.25000000       0.50000000       0.03927700 </v>
   <v>       0.00000000       0.66666700       0.26500900 </v>
   <v>       0.25000000       0.16666700       0.26500900 </v>
   <v>       0.00000000       0.33333300       0.24213400 </v>
   <v>       0.25000000       0.83333300       0.24213400 </v>
   <v>       0.00000000       0.00000000       0.16358100 </v>
   <v>       0.25000000       0.50000000       0.16358100 </v>
   <v>       0.50000000       0.66666700       0.14070600 </v>
   <v>       0.75000000       0.16666700       0.14070600 </v>
   <v>       0.50000000       0.33333300       0.06215200 </v>
   <v>       0.75000000       0.83333300       0.06215200 </v>
   <v>       0.50000000       0.00000000       0.03927700 </v>
   <v>       0.75000000       0.50000000       0.03927700 </v>
   <v>       0.50000000       0.66666700       0.26500900 </v>
   <v>       0.75000000       0.16666700       0.26500900 </v>
   <v>       0.50000000       0.33333300       0.24213400 </v>
   <v>       0.75000000       0.83333300       0.24213400 </v>
   <v>       0.50000000       0.00000000       0.16358100 </v>
   <v>       0.75000000       0.50000000       0.16358100 </v>
  </varray>
  <varray name="selective"  type="logical" >
   <v type="logical" >  F  F  F </v>
   <v type="logical" >  F  F  F </v>
   <v type="logical" >  F  F  F </v>
   <v type="logical" >  F  F  F </v>
   <v type="logical" >  F  F  F </v>
   <v type="logical" >  F  F  F </v>
   <v type="logical" >  F  F  F </v>
   <v type="logical" >  F  F  F </v>
   <v type="logical" >  F  F  F </v>
   <v type="logical" >  F  F  F </v>
   <v type="logical" >  F  F  F </v>
   <v type="logical" >  F  F  F </v>
   <v type="logical" >  F  F  F </v>
   <v type="logical" >  F  F  F </v>
   <v type="logical" >  T  T  T </v>
   <v type="logical" >  T  T  T </v>
   <v type="logical" >  F  F  F </v>
   <v type="logical" >  F  F  F </v>
   <v type="logical" >  F  F  F </v>
   <v type="logical" >  F  F  F </v>
   <v type="logical" >  T  T  T </v>
   <v type="logical" >  T  T  T </v>
   <v type="logical" >  T  T  T </v>
   <v type="logical" >  T  T  T </v>
   <v type="logical" >  F  F  F </v>
   <v type="logical" >  F  F  F </v>
   <v type="logical" >  F  F  F </v>
   <v type="logical" >  F  F  F </v>
   <v type="logical" >  F  F  F </v>
   <v type="logical" >  F  F  F </v>
   <v type="logical" >  F  F  F </v>
   <v type="logical" >  F  F  F </v>
   <v type="logical" >  F  F  F </v>
   <v type="logical" >  F  F  F </v>
   <v type="logical" >  F  F  F </v>
   <v type="logical" >  F  F  F </v>
   <v type="logical" >  F  F  F </v>
   <v type="logical" >  F  F  F </v>
   <v type="logical" >  T  T  T </v>
   <v type="logical" >  T  T  T </v>
   <v type="logical" >  F  F  F </v>
   <v type="logical" >  F  F  F </v>
   <v type="logical" >  F  F  F </v>
   <v type="logical" >  F  F  F </v>
   <v type="logical" >  T  T  T </v>
   <v type="logical" >  T  T  T </v>
   <v type="logical" >  T  T  T </v>
   <v type="logical" >  T  T  T </v>
   <v type="logical" >  F  F  F </v>
   <v type="logical" >  F  F  F </v>
   <v type="logical" >  F  F  F </v>
   <v type="logical" >  F  F  F </v>
   <v type="logical" >  F  F  F </v>
   <v type="logical" >  F  F  F </v>
   <v type="logical" >  F  F  F </v>
   <v type="logical" >  F  F  F </v>
   <v type="logical" >  F  F  F </v>
   <v type="logical" >  F  F  F </v>
   <v type="logical" >  F  F  F </v>
   <v type="logical" >  F  F  F </v>
   <v type="logical" >  F  F  F </v>
   <v type="logical" >  F  F  F </v>
   <v type="logical" >  F  F  F </v>
   <v type="logical" >  F  F  F </v>
   <v type="logical" >  F  F  F </v>
   <v type="logical" >  F  F  F </v>
   <v type="logical" >  F  F  F </v>
   <v type="logical" >  F  F  F </v>
   <v type="logical" >  F  F  F </v>
   <v type="logical" >  F  F  F </v>
   <v type="logical" >  F  F  F </v>
   <v type="logical" >  F  F  F </v>
  </varray>
  <nose>
   <v>      -3.00000000       0.00000000       0.00010000       0.00010000 </v>
  </nose>
 </structure>
 <calculation>
  <scstep>
   <time name="dav">   27.59    3.99</time>
   <time name="total">   36.54    5.37</time>
   <energy>
    <i name="alphaZ">    226.23369888 </i>
    <i name="ewald">  84833.22477648 </i>
    <i name="hartreedc">-104444.00622286 </i>
    <i name="XCdc">    706.36867878 </i>
    <i name="pawpsdc">  18223.17866176 </i>
    <i name="pawaedc"> -17542.60598086 </i>
    <i name="eentropy">     -0.06947977 </i>
    <i name="bandstr">   -609.03966613 </i>
    <i name="atom">  22038.13253899 </i>
    <i name="e_fr_energy">   3431.41700528 </i>
    <i name="e_wo_entrp">   3431.48648504 </i>
    <i name="e_0_energy">   3431.45174516 </i>
   </energy>
  </scstep>
  <scstep>
   <time name="dav">   33.42    4.79</time>
   <time name="total">   33.43    4.79</time>
   <energy>
    <i name="e_fr_energy">     15.52501871 </i>
    <i name="e_wo_entrp">     15.65011989 </i>
    <i name="e_0_energy">     15.58756930 </i>
   </energy>
  </scstep>
  <scstep>
   <time name="dav">   29.01    4.15</time>
   <time name="total">   29.02    4.16</time>
   <energy>
    <i name="e_fr_energy">   -487.18138063 </i>
    <i name="e_wo_entrp">   -486.94084959 </i>
    <i name="e_0_energy">   -487.06111511 </i>
   </energy>
  </scstep>
  <scstep>
   <time name="dav">   29.65    4.25</time>
   <time name="total">   29.68    4.26</time>
   <energy>
    <i name="e_fr_energy">   -502.07646362 </i>
    <i name="e_wo_entrp">   -501.83816794 </i>
    <i name="e_0_energy">   -501.95731578 </i>
   </energy>
  </scstep>
  <scstep>
   <time name="dav">   29.80    4.28</time>
   <time name="total">   32.26    4.64</time>
   <energy>
    <i name="e_fr_energy">   -502.52416831 </i>
    <i name="e_wo_entrp">   -502.28571755 </i>
    <i name="e_0_energy">   -502.40494293 </i>
   </energy>
  </scstep>
  <scstep>
   <time name="diag">    2.05    0.29</time>
   <time name="diis">    3.98    1.56</time>
   <time name="orth">    0.10    0.05</time>
   <time name="total">   16.50    3.57</time>
   <energy>
    <i name="e_fr_energy">   -462.37599294 </i>
    <i name="e_wo_entrp">   -462.08465028 </i>
    <i name="e_0_energy">   -462.23032161 </i>
   </energy>
  </scstep>
  <scstep>
   <time name="diag">    2.04    0.29</time>
   <time name="diis">    3.99    1.57</time>
   <time name="orth">    0.11    0.05</time>
   <time name="total">   16.44    3.56</time>
   <energy>
    <i name="e_fr_energy">   -462.87484263 </i>
    <i name="e_wo_entrp">   -462.63677057 </i>
    <i name="e_0_energy">   -462.75580660 </i>
   </energy>
  </scstep>
  <scstep>
   <time name="diag">    2.04    0.29</time>
   <time name="diis">    3.98    1.56</time>
   <time name="orth">    0.11    0.05</time>
   <time name="total">   16.40    3.54</time>
   <energy>
    <i name="e_fr_energy">   -462.60601774 </i>
    <i name="e_wo_entrp">   -462.31147103 </i>
    <i name="e_0_energy">   -462.45874439 </i>
   </energy>
  </scstep>
  <scstep>
   <time name="diag">    2.05    0.29</time>
   <time name="diis">    3.99    1.56</time>
   <time name="orth">    0.10    0.05</time>
   <time name="total">   16.62    3.58</time>
   <energy>
    <i name="e_fr_energy">   -466.03311084 </i>
    <i name="e_wo_entrp">   -465.76445655 </i>
    <i name="e_0_energy">   -465.89878370 </i>
   </energy>
  </scstep>
  <scstep>
   <time name="diag">    1.74    0.29</time>
   <time name="diis">    4.06    1.60</time>
   <time name="orth">    0.11    0.05</time>
   <time name="total">   16.91    3.69</time>
   <energy>
    <i name="e_fr_energy">   -462.62520831 </i>
    <i name="e_wo_entrp">   -462.32248005 </i>
    <i name="e_0_energy">   -462.47384418 </i>
   </energy>
  </scstep>
  <scstep>
   <time name="diag">    2.04    0.29</time>
   <time name="diis">    3.99    1.57</time>
   <time name="orth">    0.11    0.05</time>
   <time name="total">   16.59    3.58</time>
   <energy>
    <i name="e_fr_energy">   -462.59697218 </i>
    <i name="e_wo_entrp">   -462.29143484 </i>
    <i name="e_0_energy">   -462.44420351 </i>
   </energy>
  </scstep>
  <scstep>
   <time name="diag">    2.04    0.29</time>
   <time name="diis">    4.08    1.61</time>
   <time name="orth">    0.11    0.05</time>
   <time name="total">   16.79    3.65</time>
   <energy>
    <i name="e_fr_energy">   -462.64783428 </i>
    <i name="e_wo_entrp">   -462.34566571 </i>
    <i name="e_0_energy">   -462.49675000 </i>
   </energy>
  </scstep>
  <scstep>
   <time name="diag">    2.04    0.29</time>
   <time name="diis">    4.14    1.64</time>
   <time name="orth">    0.11    0.05</time>
   <time name="total">   16.77    3.66</time>
   <energy>
    <i name="e_fr_energy">   -462.54713576 </i>
    <i name="e_wo_entrp">   -462.24486650 </i>
    <i name="e_0_energy">   -462.39600113 </i>
   </energy>
  </scstep>
  <scstep>
   <time name="diag">    2.03    0.29</time>
   <time name="diis">    4.06    1.60</time>
   <time name="orth">    0.11    0.05</time>
   <time name="total">   16.76    3.62</time>
   <energy>
    <i name="e_fr_energy">   -462.56175703 </i>
    <i name="e_wo_entrp">   -462.25918228 </i>
    <i name="e_0_energy">   -462.41046965 </i>
   </energy>
  </scstep>
  <scstep>
   <time name="diag">    2.02    0.29</time>
   <time name="diis">    4.21    1.67</time>
   <time name="orth">    0.11    0.05</time>
   <time name="total">   16.95    3.70</time>
   <energy>
    <i name="e_fr_energy">   -462.55389889 </i>
    <i name="e_wo_entrp">   -462.25158291 </i>
    <i name="e_0_energy">   -462.40274090 </i>
   </energy>
  </scstep>
  <scstep>
   <time name="diag">    2.04    0.29</time>
   <time name="diis">    3.95    1.55</time>
   <time name="orth">    0.11    0.05</time>
   <time name="total">   16.73    3.59</time>
   <energy>
    <i name="e_fr_energy">   -462.55781436 </i>
    <i name="e_wo_entrp">   -462.25519836 </i>
    <i name="e_0_energy">   -462.40650636 </i>
   </energy>
  </scstep>
  <scstep>
   <time name="diag">    2.03    0.29</time>
   <time name="diis">    3.73    1.43</time>
   <time name="orth">    0.10    0.05</time>
   <time name="total">   16.51    3.46</time>
   <energy>
    <i name="e_fr_energy">   -462.55262038 </i>
    <i name="e_wo_entrp">   -462.25000276 </i>
    <i name="e_0_energy">   -462.40131157 </i>
   </energy>
  </scstep>
  <scstep>
   <time name="diag">    2.01    0.29</time>
   <time name="diis">    3.66    1.40</time>
   <time name="orth">    0.10    0.05</time>
   <time name="total">   16.38    3.43</time>
   <energy>
    <i name="e_fr_energy">   -462.55194333 </i>
    <i name="e_wo_entrp">   -462.24955431 </i>
    <i name="e_0_energy">   -462.40074882 </i>
   </energy>
  </scstep>
  <scstep>
   <time name="diag">    2.06    0.30</time>
   <time name="diis">    3.80    1.49</time>
   <time name="orth">    0.11    0.05</time>
   <time name="total">   16.63    3.54</time>
   <energy>
    <i name="e_fr_energy">   -462.55141377 </i>
    <i name="e_wo_entrp">   -462.24921812 </i>
    <i name="e_0_energy">   -462.40031594 </i>
   </energy>
  </scstep>
  <scstep>
   <time name="diag">    2.13    0.31</time>
   <time name="diis">    2.81    1.01</time>
   <time name="orth">    0.10    0.05</time>
   <time name="total">   15.97    3.11</time>
   <energy>
    <i name="e_fr_energy">   -462.55121215 </i>
    <i name="e_wo_entrp">   -462.24912402 </i>
    <i name="e_0_energy">   -462.40016808 </i>
   </energy>
  </scstep>
  <scstep>
   <time name="diag">    2.02    0.29</time>
   <time name="diis">    3.48    1.31</time>
   <time name="orth">    0.11    0.05</time>
   <time name="total">   16.42    3.38</time>
   <energy>
    <i name="e_fr_energy">   -462.55140698 </i>
    <i name="e_wo_entrp">   -462.24918763 </i>
    <i name="e_0_energy">   -462.40029730 </i>
   </energy>
  </scstep>
  <scstep>
   <time name="diag">    2.01    0.29</time>
   <time name="diis">    3.07    1.11</time>
   <time name="orth">    0.11    0.05</time>
   <time name="total">   15.97    3.17</time>
   <energy>
    <i name="e_fr_energy">   -462.55116402 </i>
    <i name="e_wo_entrp">   -462.24893703 </i>
    <i name="e_0_energy">   -462.40005052 </i>
   </energy>
  </scstep>
  <scstep>
   <time name="diag">    1.88    0.29</time>
   <time name="diis">    2.68    0.91</time>
   <time name="orth">    0.11    0.05</time>
   <time name="total">   15.83    3.02</time>
   <energy>
    <i name="e_fr_energy">   -462.55126802 </i>
    <i name="e_wo_entrp">   -462.24896040 </i>
    <i name="e_0_energy">   -462.40011421 </i>
   </energy>
  </scstep>
  <scstep>
   <time name="diag">    2.03    0.29</time>
   <time name="diis">    2.72    0.92</time>
   <time name="orth">    0.11    0.05</time>
   <time name="total">   13.74    2.61</time>
   <energy>
    <i name="alphaZ">    226.23369888 </i>
    <i name="ewald">  84833.22477648 </i>
    <i name="hartreedc">-105127.51662733 </i>
    <i name="XCdc">    754.63020853 </i>
    <i name="pawpsdc">  27541.43378547 </i>
    <i name="pawaedc"> -26870.03180126 </i>
    <i name="eentropy">     -0.30225761 </i>
    <i name="bandstr">  -3858.35549221 </i>
    <i name="atom">  22038.13253899 </i>
    <i name="e_fr_energy">   -462.55117006 </i>
    <i name="e_wo_entrp">   -462.24891245 </i>
    <i name="e_0_energy">   -462.40004125 </i>
   </energy>
  </scstep>
  <structure>
   <crystal>
    <varray name="basis" >
     <v>       9.61490200       0.00000000       0.00000000 </v>
     <v>       0.00000000       8.32674900       0.00000000 </v>
     <v>       0.00000000       0.00000000      21.56058800 </v>
    </varray>
    <i name="volume">   1726.15955402 </i>
    <varray name="rec_basis" >
     <v>       0.10400522       0.00000000       0.00000000 </v>
     <v>       0.00000000       0.12009489       0.00000000 </v>
     <v>       0.00000000       0.00000000       0.04638092 </v>
    </varray>
   </crystal>
   <varray name="positions" >
    <v>       0.17345600       0.98642100       0.00000000 </v>
    <v>       0.42345600       0.48642100       0.00000000 </v>
    <v>       0.09691200       0.50000000       0.10142900 </v>
    <v>       0.34691300       0.00000000       0.10142900 </v>
    <v>       0.15308800       0.33333300       0.00000000 </v>
    <v>       0.40308800       0.83333300       0.00000000 </v>
    <v>       0.17345600       0.68024600       0.00000000 </v>
    <v>       0.42345600       0.18024500       0.00000000 </v>
    <v>       0.07654400       0.15308700       0.10142900 </v>
    <v>       0.32654400       0.65308700       0.10142900 </v>
    <v>       0.07654400       0.84691300       0.10142900 </v>
    <v>       0.32654400       0.34691300       0.10142900 </v>
    <v>       0.17345600       0.31975500       0.20285800 </v>
    <v>       0.42345600       0.81975500       0.20285800 </v>
    <v>       0.09691200       0.83333300       0.30428600 </v>
    <v>       0.34691300       0.33333300       0.30428600 </v>
    <v>       0.15308700       0.66666700       0.20285800 </v>
    <v>       0.40308800       0.16666700       0.20285800 </v>
    <v>       0.17345600       0.01358000       0.20285800 </v>
    <v>       0.42345600       0.51358000       0.20285800 </v>
    <v>       0.07654400       0.48642100       0.30428600 </v>
    <v>       0.32654400       0.98642000       0.30428600 </v>
    <v>       0.07654400       0.18024500       0.30428600 </v>
    <v>       0.32654400       0.68024600       0.30428600 </v>
    <v>       0.67345600       0.98642100       0.00000000 </v>
    <v>       0.92345600       0.48642100       0.00000000 </v>
    <v>       0.59691300       0.50000000       0.10142900 </v>
    <v>       0.84691300       0.00000000       0.10142900 </v>
    <v>       0.65308800       0.33333300       0.00000000 </v>
    <v>       0.90308800       0.83333300       0.00000000 </v>
    <v>       0.67345600       0.68024500       0.00000000 </v>
    <v>       0.92345600       0.18024500       0.00000000 </v>
    <v>       0.57654400       0.15308700       0.10142900 </v>
    <v>       0.82654400       0.65308700       0.10142900 </v>
    <v>       0.57654400       0.84691300       0.10142900 </v>
    <v>       0.82654400       0.34691300       0.10142900 </v>
    <v>       0.67345600       0.31975500       0.20285800 </v>
    <v>       0.92345600       0.81975500       0.20285800 </v>
    <v>       0.59691300       0.83333300       0.30428600 </v>
    <v>       0.84691300       0.33333300       0.30428600 </v>
    <v>       0.65308800       0.66666700       0.20285800 </v>
    <v>       0.90308800       0.16666700       0.20285800 </v>
    <v>       0.67345600       0.01358000       0.20285800 </v>
    <v>       0.92345600       0.51357900       0.20285800 </v>
    <v>       0.57654400       0.48642000       0.30428600 </v>
    <v>       0.82654400       0.98642000       0.30428600 </v>
    <v>       0.57654400       0.18024500       0.30428600 </v>
    <v>       0.82654400       0.68024600       0.30428600 </v>
    <v>       0.00000000       0.66666700       0.14070600 </v>
    <v>       0.25000000       0.16666700       0.14070600 </v>
    <v>       0.00000000       0.33333300       0.06215200 </v>
    <v>       0.25000000       0.83333300       0.06215200 </v>
    <v>       0.00000000       0.00000000       0.03927700 </v>
    <v>       0.25000000       0.50000000       0.03927700 </v>
    <v>       0.00000000       0.66666700       0.26500900 </v>
    <v>       0.25000000       0.16666700       0.26500900 </v>
    <v>       0.00000000       0.33333300       0.24213400 </v>
    <v>       0.25000000       0.83333300       0.24213400 </v>
    <v>       0.00000000       0.00000000       0.16358100 </v>
    <v>       0.25000000       0.50000000       0.16358100 </v>
    <v>       0.50000000       0.66666700       0.14070600 </v>
    <v>       0.75000000       0.16666700       0.14070600 </v>
    <v>       0.50000000       0.33333300       0.06215200 </v>
    <v>       0.75000000       0.83333300       0.06215200 </v>
    <v>       0.50000000       0.00000000       0.03927700 </v>
    <v>       0.75000000       0.50000000       0.03927700 </v>
    <v>       0.50000000       0.66666700       0.26500900 </v>
    <v>       0.75000000       0.16666700       0.26500900 </v>
    <v>       0.50000000       0.33333300       0.24213400 </v>
    <v>       0.75000000       0.83333300       0.24213400 </v>
    <v>       0.50000000       0.00000000       0.16358100 </v>
    <v>       0.75000000       0.50000000       0.16358100 </v>
   </varray>
  </structure>
  <varray name="forces" >
   <v>      -0.01517907      -0.58727418       0.46482422 </v>
   <v>      -0.01517907      -0.58727418       0.46482422 </v>
   <v>      -0.12322510       0.25323456       0.44234764 </v>
   <v>      -0.12322510       0.25323456       0.44234764 </v>
   <v>      -0.49922224       0.29924548       0.45641546 </v>
   <v>      -0.49922224       0.29924548       0.45641546 </v>
   <v>       0.50044687       0.29060110       0.44667979 </v>
   <v>       0.50044687       0.29060110       0.44667979 </v>
   <v>       0.28040708      -0.01607376       0.44490945 </v>
   <v>       0.28040708      -0.01607376       0.44490945 </v>
   <v>      -0.15673597      -0.23684531       0.44321170 </v>
   <v>      -0.15673597      -0.23684531       0.44321170 </v>
   <v>       0.15778483       0.23201256      -0.44090739 </v>
   <v>       0.15778483       0.23201256      -0.44090739 </v>
   <v>       0.49920738      -0.29541407      -0.45410867 </v>
   <v>       0.49920738      -0.29541407      -0.45410867 </v>
   <v>       0.12191248      -0.25589798      -0.44276666 </v>
   <v>       0.12191248      -0.25589798      -0.44276666 </v>
   <v>      -0.27962059       0.02306700      -0.44340731 </v>
   <v>      -0.27962059       0.02306700      -0.44340731 </v>
   <v>      -0.50366517      -0.29038903      -0.45516531 </v>
   <v>      -0.50366517      -0.29038903      -0.45516531 </v>
   <v>       0.00929287       0.58346239      -0.45861361 </v>
   <v>       0.00929287       0.58346239      -0.45861361 </v>
   <v>      -0.01517907      -0.58727418       0.46482422 </v>
   <v>      -0.01517907      -0.58727418       0.46482422 </v>
   <v>      -0.12322510       0.25323456       0.44234764 </v>
   <v>      -0.12322510       0.25323456       0.44234764 </v>
   <v>      -0.49922224       0.29924548       0.45641546 </v>
   <v>      -0.49922224       0.29924548       0.45641546 </v>
   <v>       0.50044687       0.29060110       0.44667979 </v>
   <v>       0.50044687       0.29060110       0.44667979 </v>
   <v>       0.28040708      -0.01607376       0.44490945 </v>
   <v>       0.28040708      -0.01607376       0.44490945 </v>
   <v>      -0.15673597      -0.23684531       0.44321170 </v>
   <v>      -0.15673597      -0.23684531       0.44321170 </v>
   <v>       0.15778483       0.23201256      -0.44090739 </v>
   <v>       0.15778483       0.23201256      -0.44090739 </v>
   <v>       0.49920738      -0.29541407      -0.45410867 </v>
   <v>       0.49920738      -0.29541407      -0.45410867 </v>
   <v>       0.12191248      -0.25589798      -0.44276666 </v>
   <v>       0.12191248      -0.25589798      -0.44276666 </v>
   <v>      -0.27962059       0.02306700      -0.44340731 </v>
   <v>      -0.27962059       0.02306700      -0.44340731 </v>
   <v>      -0.50366517      -0.29038903      -0.45516531 </v>
   <v>      -0.50366517      -0.29038903      -0.45516531 </v>
   <v>       0.00929287       0.58346239      -0.45861361 </v>
   <v>       0.00929287       0.58346239      -0.45861361 </v>
   <v>      -0.00184918       0.00206951      -0.19952476 </v>
   <v>      -0.00184918       0.00206951      -0.19952476 </v>
   <v>       0.00025265       0.00334182      -1.65036058 </v>
   <v>       0.00025265       0.00334182      -1.65036058 </v>
   <v>       0.01207343      -0.00769520      -0.78510666 </v>
   <v>       0.01207343      -0.00769520      -0.78510666 </v>
   <v>      -0.00485224       0.00437671       0.78220702 </v>
   <v>      -0.00485224       0.00437671       0.78220702 </v>
   <v>       0.00147310      -0.00194265       1.64910159 </v>
   <v>       0.00147310      -0.00194265       1.64910159 </v>
   <v>       0.00149887       0.00012108       0.20026409 </v>
   <v>       0.00149887       0.00012108       0.20026409 </v>
   <v>      -0.00184918       0.00206951      -0.19952476 </v>
   <v>      -0.00184918       0.00206951      -0.19952476 </v>
   <v>       0.00025265       0.00334182      -1.65036058 </v>
   <v>       0.00025265       0.00334182      -1.65036058 </v>
   <v>       0.01207343      -0.00769520      -0.78510666 </v>
   <v>       0.01207343      -0.00769520      -0.78510666 </v>
   <v>      -0.00485224       0.00437671       0.78220702 </v>
   <v>      -0.00485224       0.00437671       0.78220702 </v>
   <v>       0.00147310      -0.00194265       1.64910159 </v>
   <v>       0.00147310      -0.00194265       1.64910159 </v>
   <v>       0.00149887       0.00012108       0.20026409 </v>
   <v>       0.00149887       0.00012108       0.20026409 </v>
  </varray>
  <varray name="stress" >
   <v>     -17.92548550      -0.00275321       0.01497110 </v>
   <v>      -0.00275308     -17.48040172       0.05582891 </v>
   <v>       0.01497128       0.05582885      -4.81846533 </v>
  </varray>
  <energy>
   <i name="e_fr_energy">   -462.55117006 </i>
   <i name="e_wo_entrp">   -462.24891245 </i>
   <i name="e_0_energy">   -462.40004125 </i>
  </energy>
  <time name="totalsc">  512.86   97.41</time>
 </calculation>
 <calculation>
  <scstep>
   <time name="dav">   28.38    4.06</time>
   <time name="total">   39.71    5.78</time>
   <energy>
    <i name="alphaZ">    226.23369888 </i>
    <i name="ewald">  85161.29345336 </i>
    <i name="hartreedc">-105447.47398631 </i>
    <i name="XCdc">    755.14239057 </i>
    <i name="pawpsdc">  27541.03419474 </i>
    <i name="pawaedc"> -26869.63308633 </i>
    <i name="eentropy">     -0.31629314 </i>
    <i name="bandstr">  -3867.13916094 </i>
    <i name="atom">  22038.13253899 </i>
    <i name="e_fr_energy">   -462.72625018 </i>
    <i name="e_wo_entrp">   -462.40995704 </i>
    <i name="e_0_energy">   -462.56810361 </i>
   </energy>
  </scstep>
  <scstep>
   <time name="diag">    2.04    0.29</time>
   <time name="diis">    3.92    1.53</time>
   <time name="orth">    0.10    0.05</time>
   <time name="total">   16.69    3.58</time>
   <energy>
    <i name="e_fr_energy">   -468.28378906 </i>
    <i name="e_wo_entrp">   -468.06139730 </i>
    <i name="e_0_energy">   -468.17259318 </i>
   </energy>
  </scstep>
  <scstep>
   <time name="diag">    2.03    0.29</time>
   <time name="diis">    3.95    1.55</time>
   <time name="orth">    0.11    0.05</time>
   <time name="total">   16.53    3.57</time>
   <energy>
    <i name="e_fr_energy">   -462.64012087 </i>
    <i name="e_wo_entrp">   -462.34237681 </i>
    <i name="e_0_energy">   -462.49124884 </i>
   </energy>
  </scstep>
  <scstep>
   <time name="diag">    2.04    0.29</time>
   <time name="diis">    3.92    1.53</time>
   <time name="orth">    0.11    0.05</time>
   <time name="total">   16.62    3.57</time>
   <energy>
    <i name="e_fr_energy">   -462.82102204 </i>
    <i name="e_wo_entrp">   -462.51414806 </i>
    <i name="e_0_energy">   -462.66758505 </i>
   </energy>
  </scstep>
  <scstep>
   <time name="diag">    2.03    0.29</time>
   <time name="diis">    3.96    1.55</time>
   <time name="orth">    0.11    0.05</time>
   <time name="total">   16.75    3.61</time>
   <energy>
    <i name="e_fr_energy">   -462.82860971 </i>
    <i name="e_wo_entrp">   -462.52345059 </i>
    <i name="e_0_energy">   -462.67603015 </i>
   </energy>
  </scstep>
  <scstep>
   <time name="diag">    2.04    0.29</time>
   <time name="diis">    3.93    1.54</time>
   <time name="orth">    0.11    0.05</time>
   <time name="total">   16.61    3.57</time>
   <energy>
    <i name="e_fr_energy">   -462.81661640 </i>
    <i name="e_wo_entrp">   -462.51208298 </i>
    <i name="e_0_energy">   -462.66434969 </i>
   </energy>
  </scstep>
  <scstep>
   <time name="diag">    2.04    0.29</time>
   <time name="diis">    4.01    1.58</time>
   <time name="orth">    0.11    0.05</time>
   <time name="total">   16.73    3.62</time>
   <energy>
    <i name="e_fr_energy">   -462.81436315 </i>
    <i name="e_wo_entrp">   -462.51034970 </i>
    <i name="e_0_energy">   -462.66235643 </i>
   </energy>
  </scstep>
  <scstep>
   <time name="diag">    2.04    0.29</time>
   <time name="diis">    4.00    1.58</time>
   <time name="orth">    0.10    0.05</time>
   <time name="total">   16.71    3.61</time>
   <energy>
    <i name="e_fr_energy">   -462.81496104 </i>
    <i name="e_wo_entrp">   -462.50991475 </i>
    <i name="e_0_energy">   -462.66243790 </i>
   </energy>
  </scstep>
  <scstep>
   <time name="diag">    2.02    0.29</time>
   <time name="diis">    3.87    1.51</time>
   <time name="orth">    0.10    0.05</time>
   <time name="total">   16.58    3.55</time>
   <energy>
    <i name="e_fr_energy">   -462.81079914 </i>
    <i name="e_wo_entrp">   -462.50550126 </i>
    <i name="e_0_energy">   -462.65815020 </i>
   </energy>
  </scstep>
  <scstep>
   <time name="diag">    2.02    0.29</time>
   <time name="diis">    3.75    1.45</time>
   <time name="orth">    0.10    0.05</time>
   <time name="total">   16.53    3.50</time>
   <energy>
    <i name="e_fr_energy">   -462.81220020 </i>
    <i name="e_wo_entrp">   -462.50689348 </i>
    <i name="e_0_energy">   -462.65954684 </i>
   </energy>
  </scstep>
  <scstep>
   <time name="diag">    2.03    0.29</time>
   <time name="diis">    3.43    1.29</time>
   <time name="orth">    0.10    0.05</time>
   <time name="total">   16.26    3.35</time>
   <energy>
    <i name="e_fr_energy">   -462.81054904 </i>
    <i name="e_wo_entrp">   -462.50518722 </i>
    <i name="e_0_energy">   -462.65786813 </i>
   </energy>
  </scstep>
  <scstep>
   <time name="diag">    2.03    0.29</time>
   <time name="diis">    2.84    0.99</time>
   <time name="orth">    0.11    0.05</time>
   <time name="total">   15.69    3.05</time>
   <energy>
    <i name="e_fr_energy">   -462.81081002 </i>
    <i name="e_wo_entrp">   -462.50546192 </i>
    <i name="e_0_energy">   -462.65813597 </i>
   </energy>
  </scstep>
  <scstep>
   <time name="diag">    2.03    0.29</time>
   <time name="diis">    2.66    0.90</time>
   <time name="orth">    0.11    0.05</time>
   <time name="total">   13.69    2.59</time>
   <energy>
    <i name="alphaZ">    226.23369888 </i>
    <i name="ewald">  85161.29345336 </i>
    <i name="hartreedc">-105465.30441871 </i>
    <i name="XCdc">    755.43171145 </i>
    <i name="pawpsdc">  27650.08562193 </i>
    <i name="pawaedc"> -26978.82276771 </i>
    <i name="eentropy">     -0.30544420 </i>
    <i name="bandstr">  -3849.55520261 </i>
    <i name="atom">  22038.13253899 </i>
    <i name="e_fr_energy">   -462.81080863 </i>
    <i name="e_wo_entrp">   -462.50536442 </i>
    <i name="e_0_energy">   -462.65808653 </i>
   </energy>
  </scstep>
  <structure>
   <crystal>
    <varray name="basis" >
     <v>       9.61490200       0.00000000       0.00000000 </v>
     <v>       0.00000000       8.32674900       0.00000000 </v>
     <v>       0.00000000       0.00000000      21.56058800 </v>
    </varray>
    <i name="volume">   1726.15955402 </i>
    <varray name="rec_basis" >
     <v>       0.10400522       0.00000000       0.00000000 </v>
     <v>       0.00000000       0.12009489       0.00000000 </v>
     <v>       0.00000000       0.00000000       0.04638092 </v>
    </varray>
   </crystal>
   <varray name="positions" >
    <v>       0.17345600       0.98642100       0.00000000 </v>
    <v>       0.42345600       0.48642100       0.00000000 </v>
    <v>       0.09691200       0.50000000       0.10142900 </v>
    <v>       0.34691300       0.00000000       0.10142900 </v>
    <v>       0.15308800       0.33333300       0.00000000 </v>
    <v>       0.40308800       0.83333300       0.00000000 </v>
    <v>       0.17345600       0.68024600       0.00000000 </v>
    <v>       0.42345600       0.18024500       0.00000000 </v>
    <v>       0.07654400       0.15308700       0.10142900 </v>
    <v>       0.32654400       0.65308700       0.10142900 </v>
    <v>       0.07654400       0.84691300       0.10142900 </v>
    <v>       0.32654400       0.34691300       0.10142900 </v>
    <v>       0.17345600       0.31975500       0.20285800 </v>
    <v>       0.42345600       0.81975500       0.20285800 </v>
    <v>       0.09941677       0.83162146       0.30326991 </v>
    <v>       0.34941777       0.33162146       0.30326991 </v>
    <v>       0.15308700       0.66666700       0.20285800 </v>
    <v>       0.40308800       0.16666700       0.20285800 </v>
    <v>       0.17345600       0.01358000       0.20285800 </v>
    <v>       0.42345600       0.51358000       0.20285800 </v>
    <v>       0.07401687       0.48473857       0.30326755 </v>
    <v>       0.32401687       0.98473757       0.30326755 </v>
    <v>       0.07659063       0.18362540       0.30325983 </v>
    <v>       0.32659063       0.68362640       0.30325983 </v>
    <v>       0.67345600       0.98642100       0.00000000 </v>
    <v>       0.92345600       0.48642100       0.00000000 </v>
    <v>       0.59691300       0.50000000       0.10142900 </v>
    <v>       0.84691300       0.00000000       0.10142900 </v>
    <v>       0.65308800       0.33333300       0.00000000 </v>
    <v>       0.90308800       0.83333300       0.00000000 </v>
    <v>       0.67345600       0.68024500       0.00000000 </v>
    <v>       0.92345600       0.18024500       0.00000000 </v>
    <v>       0.57654400       0.15308700       0.10142900 </v>
    <v>       0.82654400       0.65308700       0.10142900 </v>
    <v>       0.57654400       0.84691300       0.10142900 </v>
    <v>       0.82654400       0.34691300       0.10142900 </v>
    <v>       0.67345600       0.31975500       0.20285800 </v>
    <v>       0.92345600       0.81975500       0.20285800 </v>
    <v>       0.59941777       0.83162146       0.30326991 </v>
    <v>       0.84941777       0.33162146       0.30326991 </v>
    <v>       0.65308800       0.66666700       0.20285800 </v>
    <v>       0.90308800       0.16666700       0.20285800 </v>
    <v>       0.67345600       0.01358000       0.20285800 </v>
    <v>       0.92345600       0.51357900       0.20285800 </v>
    <v>       0.57401687       0.48473757       0.30326755 </v>
    <v>       0.82401687       0.98473757       0.30326755 </v>
    <v>       0.57659063       0.18362540       0.30325983 </v>
    <v>       0.82659063       0.68362640       0.30325983 </v>
    <v>       0.00000000       0.66666700       0.14070600 </v>
    <v>       0.25000000       0.16666700       0.14070600 </v>
    <v>       0.00000000       0.33333300       0.06215200 </v>
    <v>       0.25000000       0.83333300       0.06215200 </v>
    <v>       0.00000000       0.00000000       0.03927700 </v>
    <v>       0.25000000       0.50000000       0.03927700 </v>
    <v>       0.00000000       0.66666700       0.26500900 </v>
    <v>       0.25000000       0.16666700       0.26500900 </v>
    <v>       0.00000000       0.33333300       0.24213400 </v>
    <v>       0.25000000       0.83333300       0.24213400 </v>
    <v>       0.00000000       0.00000000       0.16358100 </v>
    <v>       0.25000000       0.50000000       0.16358100 </v>
    <v>       0.50000000       0.66666700       0.14070600 </v>
    <v>       0.75000000       0.16666700       0.14070600 </v>
    <v>       0.50000000       0.33333300       0.06215200 </v>
    <v>       0.75000000       0.83333300       0.06215200 </v>
    <v>       0.50000000       0.00000000       0.03927700 </v>
    <v>       0.75000000       0.50000000       0.03927700 </v>
    <v>       0.50000000       0.66666700       0.26500900 </v>
    <v>       0.75000000       0.16666700       0.26500900 </v>
    <v>       0.50000000       0.33333300       0.24213400 </v>
    <v>       0.75000000       0.83333300       0.24213400 </v>
    <v>       0.50000000       0.00000000       0.16358100 </v>
    <v>       0.75000000       0.50000000       0.16358100 </v>
   </varray>
  </structure>
  <varray name="forces" >
   <v>      -0.01122999      -0.58278438       0.45708088 </v>
   <v>      -0.01122999      -0.58278438       0.45708088 </v>
   <v>      -0.12858902       0.24856667       0.43420069 </v>
   <v>      -0.12858902       0.24856667       0.43420069 </v>
   <v>      -0.49288288       0.30362647       0.45792941 </v>
   <v>      -0.49288288       0.30362647       0.45792941 </v>
   <v>       0.50874961       0.27953783       0.46586840 </v>
   <v>       0.50874961       0.27953783       0.46586840 </v>
   <v>       0.28020179      -0.01056112       0.43483043 </v>
   <v>       0.28020179      -0.01056112       0.43483043 </v>
   <v>      -0.15177364      -0.23901135       0.43478586 </v>
   <v>      -0.15177364      -0.23901135       0.43478586 </v>
   <v>       0.22445534       0.27252465      -0.53161456 </v>
   <v>       0.22445534       0.27252465      -0.53161456 </v>
   <v>       0.34938519      -0.20785265      -0.24783252 </v>
   <v>       0.34938519      -0.20785265      -0.24783252 </v>
   <v>       0.12510406      -0.33324104      -0.53203540 </v>
   <v>       0.12510406      -0.33324104      -0.53203540 </v>
   <v>      -0.34872306       0.06028462      -0.53133153 </v>
   <v>      -0.34872306       0.06028462      -0.53133153 </v>
   <v>      -0.35889852      -0.19897459      -0.25812416 </v>
   <v>      -0.35889852      -0.19897459      -0.25812416 </v>
   <v>      -0.00512844       0.40487435      -0.23225945 </v>
   <v>      -0.00512844       0.40487435      -0.23225945 </v>
   <v>      -0.01122999      -0.58278438       0.45708088 </v>
   <v>      -0.01122999      -0.58278438       0.45708088 </v>
   <v>      -0.12858902       0.24856667       0.43420069 </v>
   <v>      -0.12858902       0.24856667       0.43420069 </v>
   <v>      -0.49288288       0.30362647       0.45792941 </v>
   <v>      -0.49288288       0.30362647       0.45792941 </v>
   <v>       0.50874961       0.27953783       0.46586840 </v>
   <v>       0.50874961       0.27953783       0.46586840 </v>
   <v>       0.28020179      -0.01056112       0.43483043 </v>
   <v>       0.28020179      -0.01056112       0.43483043 </v>
   <v>      -0.15177364      -0.23901135       0.43478586 </v>
   <v>      -0.15177364      -0.23901135       0.43478586 </v>
   <v>       0.22445534       0.27252465      -0.53161456 </v>
   <v>       0.22445534       0.27252465      -0.53161456 </v>
   <v>       0.34938519      -0.20785265      -0.24783252 </v>
   <v>       0.34938519      -0.20785265      -0.24783252 </v>
   <v>       0.12510406      -0.33324104      -0.53203540 </v>
   <v>       0.12510406      -0.33324104      -0.53203540 </v>
   <v>      -0.34872306       0.06028462      -0.53133153 </v>
   <v>      -0.34872306       0.06028462      -0.53133153 </v>
   <v>      -0.35889852      -0.19897459      -0.25812416 </v>
   <v>      -0.35889852      -0.19897459      -0.25812416 </v>
   <v>      -0.00512844       0.40487435      -0.23225945 </v>
   <v>      -0.00512844       0.40487435      -0.23225945 </v>
   <v>      -0.00071141       0.00223408      -0.17554390 </v>
   <v>      -0.00071141       0.00223408      -0.17554390 </v>
   <v>      -0.00209028      -0.00720572      -1.65648326 </v>
   <v>      -0.00209028      -0.00720572      -1.65648326 </v>
   <v>      -0.00278859       0.00515574      -0.79350361 </v>
   <v>      -0.00278859       0.00515574      -0.79350361 </v>
   <v>       0.01592582      -0.00468027       0.65136459 </v>
   <v>       0.01592582      -0.00468027       0.65136459 </v>
   <v>      -0.00083315       0.00840073       1.40288735 </v>
   <v>      -0.00083315       0.00840073       1.40288735 </v>
   <v>      -0.00017280      -0.00089403       0.21978078 </v>
   <v>      -0.00017280      -0.00089403       0.21978078 </v>
   <v>      -0.00071141       0.00223408      -0.17554390 </v>
   <v>      -0.00071141       0.00223408      -0.17554390 </v>
   <v>      -0.00209028      -0.00720572      -1.65648326 </v>
   <v>      -0.00209028      -0.00720572      -1.65648326 </v>
   <v>      -0.00278859       0.00515574      -0.79350361 </v>
   <v>      -0.00278859       0.00515574      -0.79350361 </v>
   <v>       0.01592582      -0.00468027       0.65136459 </v>
   <v>       0.01592582      -0.00468027       0.65136459 </v>
   <v>      -0.00083315       0.00840073       1.40288735 </v>
   <v>      -0.00083315       0.00840073       1.40288735 </v>
   <v>      -0.00017280      -0.00089403       0.21978078 </v>
   <v>      -0.00017280      -0.00089403       0.21978078 </v>
  </varray>
  <varray name="stress" >
   <v>     -15.28593836      -0.04328287      -0.04229297 </v>
   <v>      -0.04328276     -15.22224208       0.01311542 </v>
   <v>      -0.04229322       0.01311539      -1.76510498 </v>
  </varray>
  <energy>
   <i name="e_fr_energy">   -462.81080863 </i>
   <i name="e_wo_entrp">   -462.50536442 </i>
   <i name="e_0_energy">   -462.65808653 </i>
  </energy>
  <time name="totalsc">  275.34   55.48</time>
 </calculation>
 <calculation>
  <scstep>
   <time name="dav">   26.76    3.84</time>
   <time name="total">   37.95    5.52</time>
   <energy>
    <i name="alphaZ">    226.23369888 </i>
    <i name="ewald">  85749.16955121 </i>
    <i name="hartreedc">-106033.58459778 </i>
    <i name="XCdc">    756.36123200 </i>
    <i name="pawpsdc">  27649.51025800 </i>
    <i name="pawaedc"> -26978.24728586 </i>
    <i name="eentropy">     -0.35913624 </i>
    <i name="bandstr">  -3869.88281997 </i>
    <i name="atom">  22038.13253899 </i>
    <i name="e_fr_energy">   -462.66656079 </i>
    <i name="e_wo_entrp">   -462.30742455 </i>
    <i name="e_0_energy">   -462.48699267 </i>
   </energy>
  </scstep>
  <scstep>
   <time name="diag">    2.04    0.29</time>
   <time name="diis">    3.92    1.54</time>
   <time name="orth">    0.10    0.05</time>
   <time name="total">   16.49    3.56</time>
   <energy>
    <i name="e_fr_energy">   -476.44313948 </i>
    <i name="e_wo_entrp">   -476.28718581 </i>
    <i name="e_0_energy">   -476.36516264 </i>
   </energy>
  </scstep>
  <scstep>
   <time name="diag">    2.05    0.29</time>
   <time name="diis">    3.95    1.55</time>
   <time name="orth">    0.10    0.05</time>
   <time name="total">   16.53    3.57</time>
   <energy>
    <i name="e_fr_energy">   -462.83027808 </i>
    <i name="e_wo_entrp">   -462.52949282 </i>
    <i name="e_0_energy">   -462.67988545 </i>
   </energy>
  </scstep>
  <scstep>
   <time name="diag">    2.04    0.29</time>
   <time name="diis">    3.91    1.54</time>
   <time name="orth">    0.11    0.05</time>
   <time name="total">   16.53    3.56</time>
   <energy>
    <i name="e_fr_energy">   -462.95979039 </i>
    <i name="e_wo_entrp">   -462.63872858 </i>
    <i name="e_0_energy">   -462.79925948 </i>
   </energy>
  </scstep>
  <scstep>
   <time name="diag">    1.94    0.29</time>
   <time name="diis">    3.94    1.55</time>
   <time name="orth">    0.11    0.05</time>
   <time name="total">   16.56    3.60</time>
   <energy>
    <i name="e_fr_energy">   -463.07441276 </i>
    <i name="e_wo_entrp">   -462.76041950 </i>
    <i name="e_0_energy">   -462.91741613 </i>
   </energy>
  </scstep>
  <scstep>
   <time name="diag">    2.07    0.30</time>
   <time name="diis">    3.94    1.54</time>
   <time name="orth">    0.11    0.05</time>
   <time name="total">   16.69    3.61</time>
   <energy>
    <i name="e_fr_energy">   -462.96556320 </i>
    <i name="e_wo_entrp">   -462.65147326 </i>
    <i name="e_0_energy">   -462.80851823 </i>
   </energy>
  </scstep>
  <scstep>
   <time name="diag">    2.04    0.29</time>
   <time name="diis">    4.00    1.57</time>
   <time name="orth">    0.11    0.05</time>
   <time name="total">   16.77    3.62</time>
   <energy>
    <i name="e_fr_energy">   -462.99468440 </i>
    <i name="e_wo_entrp">   -462.68001554 </i>
    <i name="e_0_energy">   -462.83734997 </i>
   </energy>
  </scstep>
  <scstep>
   <time name="diag">    2.04    0.29</time>
   <time name="diis">    3.96    1.55</time>
   <time name="orth">    0.11    0.05</time>
   <time name="total">   16.67    3.58</time>
   <energy>
    <i name="e_fr_energy">   -462.96664319 </i>
    <i name="e_wo_entrp">   -462.65172999 </i>
    <i name="e_0_energy">   -462.80918659 </i>
   </energy>
  </scstep>
  <scstep>
   <time name="diag">    2.04    0.29</time>
   <time name="diis">    4.02    1.58</time>
   <time name="orth">    0.11    0.05</time>
   <time name="total">   16.74    3.61</time>
   <energy>
    <i name="e_fr_energy">   -462.96613363 </i>
    <i name="e_wo_entrp">   -462.65067692 </i>
    <i name="e_0_energy">   -462.80840528 </i>
   </energy>
  </scstep>
  <scstep>
   <time name="diag">    2.03    0.29</time>
   <time name="diis">    3.97    1.55</time>
   <time name="orth">    0.11    0.05</time>
   <time name="total">   16.69    3.59</time>
   <energy>
    <i name="e_fr_energy">   -462.96507343 </i>
    <i name="e_wo_entrp">   -462.64962660 </i>
    <i name="e_0_energy">   -462.80735002 </i>
   </energy>
  </scstep>
  <scstep>
   <time name="diag">    2.10    0.30</time>
   <time name="diis">    3.66    1.42</time>
   <time name="orth">    0.11    0.05</time>
   <time name="total">   16.50    3.47</time>
   <energy>
    <i name="e_fr_energy">   -462.96297201 </i>
    <i name="e_wo_entrp">   -462.64744175 </i>
    <i name="e_0_energy">   -462.80520688 </i>
   </energy>
  </scstep>
  <scstep>
   <time name="diag">    2.04    0.29</time>
   <time name="diis">    3.22    1.18</time>
   <time name="orth">    0.11    0.05</time>
   <time name="total">   16.03    3.23</time>
   <energy>
    <i name="e_fr_energy">   -462.96316046 </i>
    <i name="e_wo_entrp">   -462.64755165 </i>
    <i name="e_0_energy">   -462.80535605 </i>
   </energy>
  </scstep>
  <scstep>
   <time name="diag">    2.03    0.29</time>
   <time name="diis">    3.02    1.08</time>
   <time name="orth">    0.11    0.05</time>
   <time name="total">   15.93    3.15</time>
   <energy>
    <i name="e_fr_energy">   -462.96291353 </i>
    <i name="e_wo_entrp">   -462.64721724 </i>
    <i name="e_0_energy">   -462.80506539 </i>
   </energy>
  </scstep>
  <scstep>
   <time name="diag">    2.05    0.30</time>
   <time name="diis">    2.72    0.93</time>
   <time name="orth">    0.11    0.05</time>
   <time name="total">   15.63    2.99</time>
   <energy>
    <i name="e_fr_energy">   -462.96267566 </i>
    <i name="e_wo_entrp">   -462.64689009 </i>
    <i name="e_0_energy">   -462.80478287 </i>
   </energy>
  </scstep>
  <scstep>
   <time name="diag">    2.04    0.29</time>
   <time name="diis">    2.70    0.91</time>
   <time name="orth">    0.11    0.05</time>
   <time name="total">   13.76    2.63</time>
   <energy>
    <i name="alphaZ">    226.23369888 </i>
    <i name="ewald">  85749.16955121 </i>
    <i name="hartreedc">-106059.16929937 </i>
    <i name="XCdc">    756.87193407 </i>
    <i name="pawpsdc">  27852.64560263 </i>
    <i name="pawaedc"> -27181.62958993 </i>
    <i name="eentropy">     -0.31579279 </i>
    <i name="bandstr">  -3844.90135434 </i>
    <i name="atom">  22038.13253899 </i>
    <i name="e_fr_energy">   -462.96271064 </i>
    <i name="e_wo_entrp">   -462.64691785 </i>
    <i name="e_0_energy">   -462.80481425 </i>
   </energy>
  </scstep>
  <structure>
   <crystal>
    <varray name="basis" >
     <v>       9.61490200       0.00000000       0.00000000 </v>
     <v>       0.00000000       8.32674900       0.00000000 </v>
     <v>       0.00000000       0.00000000      21.56058800 </v>
    </varray>
    <i name="volume">   1726.15955402 </i>
    <varray name="rec_basis" >
     <v>       0.10400522       0.00000000       0.00000000 </v>
     <v>       0.00000000       0.12009489       0.00000000 </v>
     <v>       0.00000000       0.00000000       0.04638092 </v>
    </varray>
   </crystal>
   <varray name="positions" >
    <v>       0.17345600       0.98642100       0.00000000 </v>
    <v>       0.42345600       0.48642100       0.00000000 </v>
    <v>       0.09691200       0.50000000       0.10142900 </v>
    <v>       0.34691300       0.00000000       0.10142900 </v>
    <v>       0.15308800       0.33333300       0.00000000 </v>
    <v>       0.40308800       0.83333300       0.00000000 </v>
    <v>       0.17345600       0.68024600       0.00000000 </v>
    <v>       0.42345600       0.18024500       0.00000000 </v>
    <v>       0.07654400       0.15308700       0.10142900 </v>
    <v>       0.32654400       0.65308700       0.10142900 </v>
    <v>       0.07654400       0.84691300       0.10142900 </v>
    <v>       0.32654400       0.34691300       0.10142900 </v>
    <v>       0.17345600       0.31975500       0.20285800 </v>
    <v>       0.42345600       0.81975500       0.20285800 </v>
    <v>       0.10384990       0.82859225       0.30147157 </v>
    <v>       0.35385090       0.32859225       0.30147157 </v>
    <v>       0.15308700       0.66666700       0.20285800 </v>
    <v>       0.40308800       0.16666700       0.20285800 </v>
    <v>       0.17345600       0.01358000       0.20285800 </v>
    <v>       0.42345600       0.51358000       0.20285800 </v>
    <v>       0.06954415       0.48176089       0.30146502 </v>
    <v>       0.31954415       0.98175989       0.30146502 </v>
    <v>       0.07667315       0.18960830       0.30144365 </v>
    <v>       0.32667315       0.68960930       0.30144365 </v>
    <v>       0.67345600       0.98642100       0.00000000 </v>
    <v>       0.92345600       0.48642100       0.00000000 </v>
    <v>       0.59691300       0.50000000       0.10142900 </v>
    <v>       0.84691300       0.00000000       0.10142900 </v>
    <v>       0.65308800       0.33333300       0.00000000 </v>
    <v>       0.90308800       0.83333300       0.00000000 </v>
    <v>       0.67345600       0.68024500       0.00000000 </v>
    <v>       0.92345600       0.18024500       0.00000000 </v>
    <v>       0.57654400       0.15308700       0.10142900 </v>
    <v>       0.82654400       0.65308700       0.10142900 </v>
    <v>       0.57654400       0.84691300       0.10142900 </v>
    <v>       0.82654400       0.34691300       0.10142900 </v>
    <v>       0.67345600       0.31975500       0.20285800 </v>
    <v>       0.92345600       0.81975500       0.20285800 </v>
    <v>       0.60385090       0.82859225       0.30147157 </v>
    <v>       0.85385090       0.32859225       0.30147157 </v>
    <v>       0.65308800       0.66666700       0.20285800 </v>
    <v>       0.90308800       0.16666700       0.20285800 </v>
    <v>       0.67345600       0.01358000       0.20285800 </v>
    <v>       0.92345600       0.51357900       0.20285800 </v>
    <v>       0.56954415       0.48175989       0.30146502 </v>
    <v>       0.81954415       0.98175989       0.30146502 </v>
    <v>       0.57667315       0.18960830       0.30144365 </v>
    <v>       0.82667315       0.68960930       0.30144365 </v>
    <v>       0.00000000       0.66666700       0.14070600 </v>
    <v>       0.25000000       0.16666700       0.14070600 </v>
    <v>       0.00000000       0.33333300       0.06215200 </v>
    <v>       0.25000000       0.83333300       0.06215200 </v>
    <v>       0.00000000       0.00000000       0.03927700 </v>
    <v>       0.25000000       0.50000000       0.03927700 </v>
    <v>       0.00000000       0.66666700       0.26500900 </v>
    <v>       0.25000000       0.16666700       0.26500900 </v>
    <v>       0.00000000       0.33333300       0.24213400 </v>
    <v>       0.25000000       0.83333300       0.24213400 </v>
    <v>       0.00000000       0.00000000       0.16358100 </v>
    <v>       0.25000000       0.50000000       0.16358100 </v>
    <v>       0.50000000       0.66666700       0.14070600 </v>
    <v>       0.75000000       0.16666700       0.14070600 </v>
    <v>       0.50000000       0.33333300       0.06215200 </v>
    <v>       0.75000000       0.83333300       0.06215200 </v>
    <v>       0.50000000       0.00000000       0.03927700 </v>
    <v>       0.75000000       0.50000000       0.03927700 </v>
    <v>       0.50000000       0.66666700       0.26500900 </v>
    <v>       0.75000000       0.16666700       0.26500900 </v>
    <v>       0.50000000       0.33333300       0.24213400 </v>
    <v>       0.75000000       0.83333300       0.24213400 </v>
    <v>       0.50000000       0.00000000       0.16358100 </v>
    <v>       0.75000000       0.50000000       0.16358100 </v>
   </varray>
  </structure>
  <varray name="forces" >
   <v>      -0.02461834      -0.58195457       0.47480889 </v>
   <v>      -0.02461834      -0.58195457       0.47480889 </v>
   <v>      -0.13461753       0.24396924       0.42034779 </v>
   <v>      -0.13461753       0.24396924       0.42034779 </v>
   <v>      -0.48976548       0.30536080       0.46807869 </v>
   <v>      -0.48976548       0.30536080       0.46807869 </v>
   <v>       0.50054486       0.27930352       0.45709931 </v>
   <v>       0.50054486       0.27930352       0.45709931 </v>
   <v>       0.27861900      -0.00146112       0.42281670 </v>
   <v>       0.27861900      -0.00146112       0.42281670 </v>
   <v>      -0.14295718      -0.24229534       0.42108509 </v>
   <v>      -0.14295718      -0.24229534       0.42108509 </v>
   <v>       0.34482485       0.34574969      -0.69698685 </v>
   <v>       0.34482485       0.34574969      -0.69698685 </v>
   <v>      -0.00809664      -0.06164934       0.17481429 </v>
   <v>      -0.00809664      -0.06164934       0.17481429 </v>
   <v>       0.12663604      -0.47353876      -0.69539014 </v>
   <v>       0.12663604      -0.47353876      -0.69539014 </v>
   <v>      -0.46974588       0.12831560      -0.69544120 </v>
   <v>      -0.46974588       0.12831560      -0.69544120 </v>
   <v>      -0.05030168       0.03863652       0.17662977 </v>
   <v>      -0.05030168       0.03863652       0.17662977 </v>
   <v>       0.05295222       0.02295643       0.18858221 </v>
   <v>       0.05295222       0.02295643       0.18858221 </v>
   <v>      -0.02461834      -0.58195457       0.47480889 </v>
   <v>      -0.02461834      -0.58195457       0.47480889 </v>
   <v>      -0.13461753       0.24396924       0.42034779 </v>
   <v>      -0.13461753       0.24396924       0.42034779 </v>
   <v>      -0.48976548       0.30536080       0.46807869 </v>
   <v>      -0.48976548       0.30536080       0.46807869 </v>
   <v>       0.50054486       0.27930352       0.45709931 </v>
   <v>       0.50054486       0.27930352       0.45709931 </v>
   <v>       0.27861900      -0.00146112       0.42281670 </v>
   <v>       0.27861900      -0.00146112       0.42281670 </v>
   <v>      -0.14295718      -0.24229534       0.42108509 </v>
   <v>      -0.14295718      -0.24229534       0.42108509 </v>
   <v>       0.34482485       0.34574969      -0.69698685 </v>
   <v>       0.34482485       0.34574969      -0.69698685 </v>
   <v>      -0.00809664      -0.06164934       0.17481429 </v>
   <v>      -0.00809664      -0.06164934       0.17481429 </v>
[...]
       <r>   -18.7348     0.0000    96.0000 </r>
       <r>   -18.6267     0.0000    96.0000 </r>
       <r>   -18.5185     0.0000    96.0000 </r>
       <r>   -18.4104     0.0000    96.0000 </r>
       <r>   -18.3023     0.0000    96.0000 </r>
       <r>   -18.1942     0.0000    96.0000 </r>
       <r>   -18.0860     0.0000    96.0000 </r>
       <r>   -17.9779     0.0000    96.0000 </r>
       <r>   -17.8698     0.0000    96.0000 </r>
       <r>   -17.7617     0.0000    96.0000 </r>
       <r>   -17.6535     0.0000    96.0000 </r>
       <r>   -17.5454     0.0000    96.0000 </r>
       <r>   -17.4373     0.0000    96.0000 </r>
       <r>   -17.3292     0.0000    96.0000 </r>
       <r>   -17.2210     0.0000    96.0000 </r>
       <r>   -17.1129     0.0000    96.0000 </r>
       <r>   -17.0048     0.0000    96.0000 </r>
       <r>   -16.8967     0.0000    96.0000 </r>
       <r>   -16.7885     0.0000    96.0000 </r>
       <r>   -16.6804     0.0000    96.0000 </r>
       <r>   -16.5723     0.0000    96.0000 </r>
       <r>   -16.4642     0.0000    96.0000 </r>
       <r>   -16.3560     0.0000    96.0000 </r>
       <r>   -16.2479     0.0000    96.0000 </r>
       <r>   -16.1398     0.0000    96.0000 </r>
       <r>   -16.0317     0.0000    96.0000 </r>
       <r>   -15.9235     0.0000    96.0000 </r>
       <r>   -15.8154     0.0000    96.0000 </r>
       <r>   -15.7073     0.0000    96.0000 </r>
       <r>   -15.5992     0.0000    96.0000 </r>
       <r>   -15.4910     0.0000    96.0000 </r>
       <r>   -15.3829     0.0000    96.0000 </r>
       <r>   -15.2748     0.0000    96.0000 </r>
       <r>   -15.1667     0.0000    96.0000 </r>
       <r>   -15.0585     0.0000    96.0000 </r>
       <r>   -14.9504     0.0000    96.0000 </r>
       <r>   -14.8423     0.0000    96.0000 </r>
       <r>   -14.7342     0.0000    96.0000 </r>
       <r>   -14.6260     0.0000    96.0000 </r>
       <r>   -14.5179     0.0000    96.0000 </r>
       <r>   -14.4098     0.0000    96.0000 </r>
       <r>   -14.3017     0.0000    96.0000 </r>
       <r>   -14.1935     0.0000    96.0000 </r>
       <r>   -14.0854     0.0000    96.0000 </r>
       <r>   -13.9773     0.0000    96.0000 </r>
       <r>   -13.8692     0.0000    96.0000 </r>
       <r>   -13.7610     0.0000    96.0000 </r>
       <r>   -13.6529     0.0000    96.0000 </r>
       <r>   -13.5448     0.0000    96.0000 </r>
       <r>   -13.4367     0.0000    96.0000 </r>
       <r>   -13.3285     0.0000    96.0000 </r>
       <r>   -13.2204     0.0000    96.0000 </r>
       <r>   -13.1123     0.0000    96.0000 </r>
       <r>   -13.0041     0.0000    96.0000 </r>
       <r>   -12.8960     0.0000    96.0000 </r>
       <r>   -12.7879     0.0000    96.0000 </r>
       <r>   -12.6798     0.0000    96.0000 </r>
       <r>   -12.5716     0.0000    96.0000 </r>
       <r>   -12.4635     0.0000    96.0000 </r>
       <r>   -12.3554     0.0000    96.0000 </r>
       <r>   -12.2473     0.0000    96.0000 </r>
       <r>   -12.1391     0.0000    96.0000 </r>
       <r>   -12.0310     0.0000    96.0000 </r>
       <r>   -11.9229     0.0000    96.0000 </r>
       <r>   -11.8148     0.0000    96.0000 </r>
       <r>   -11.7066     0.0000    96.0000 </r>
       <r>   -11.5985     0.0000    96.0000 </r>
       <r>   -11.4904     0.0000    96.0000 </r>
       <r>   -11.3823     0.0000    96.0000 </r>
       <r>   -11.2741     0.0000    96.0000 </r>
       <r>   -11.1660     0.0001    96.0000 </r>
       <r>   -11.0579     0.0229    96.0025 </r>
       <r>   -10.9498     0.8459    96.0939 </r>
       <r>   -10.8416     6.2120    96.7656 </r>
       <r>   -10.7335    15.9479    98.4900 </r>
       <r>   -10.6254    24.9364   101.1862 </r>
       <r>   -10.5173    28.3726   104.2540 </r>
       <r>   -10.4091    19.8832   106.4039 </r>
       <r>   -10.3010    20.1948   108.5875 </r>
       <r>   -10.1929    29.5380   111.7813 </r>
       <r>   -10.0848    35.9731   115.6709 </r>
       <r>    -9.9766    31.2610   119.0510 </r>
       <r>    -9.8685    24.5620   121.7068 </r>
       <r>    -9.7604    21.5079   124.0323 </r>
       <r>    -9.6523    18.5791   126.0412 </r>
       <r>    -9.5441    15.4733   127.7142 </r>
       <r>    -9.4360    12.1603   129.0291 </r>
       <r>    -9.3279    14.1375   130.5577 </r>
       <r>    -9.2198    19.8830   132.7075 </r>
       <r>    -9.1116    27.4720   135.6780 </r>
       <r>    -9.0035    25.3982   138.4242 </r>
       <r>    -8.8954    29.9684   141.6645 </r>
       <r>    -8.7873    33.4234   145.2784 </r>
       <r>    -8.6791    23.4399   147.8128 </r>
       <r>    -8.5710    19.4619   149.9172 </r>
       <r>    -8.4629    25.3603   152.6593 </r>
       <r>    -8.3548    30.7589   155.9851 </r>
       <r>    -8.2466    32.7613   159.5274 </r>
       <r>    -8.1385    31.6654   162.9512 </r>
       <r>    -8.0304    32.6664   166.4833 </r>
       <r>    -7.9223    28.0878   169.5203 </r>
       <r>    -7.8141    30.1185   172.7768 </r>
       <r>    -7.7060    47.0931   177.8688 </r>
       <r>    -7.5979    45.3870   182.7763 </r>
       <r>    -7.4898    38.5759   186.9473 </r>
       <r>    -7.3816    42.5042   191.5431 </r>
       <r>    -7.2735    37.0980   195.5543 </r>
       <r>    -7.1654    39.3348   199.8074 </r>
       <r>    -7.0573    30.2778   203.0812 </r>
       <r>    -6.9491    31.5680   206.4945 </r>
       <r>    -6.8410    33.9125   210.1613 </r>
       <r>    -6.7329    41.0160   214.5961 </r>
       <r>    -6.6248    45.2359   219.4873 </r>
       <r>    -6.5166    43.6328   224.2051 </r>
       <r>    -6.4085    34.3974   227.9243 </r>
       <r>    -6.3004    49.1572   233.2394 </r>
       <r>    -6.1923    59.6319   239.6871 </r>
       <r>    -6.0841    56.6513   245.8126 </r>
       <r>    -5.9760    58.7123   252.1609 </r>
       <r>    -5.8679    62.5703   258.9263 </r>
       <r>    -5.7598    60.7262   265.4923 </r>
       <r>    -5.6516    44.4639   270.3000 </r>
       <r>    -5.5435    43.7960   275.0354 </r>
       <r>    -5.4354    65.5900   282.1274 </r>
       <r>    -5.3273    63.4860   288.9918 </r>
       <r>    -5.2191    40.2634   293.3453 </r>
       <r>    -5.1110    39.7787   297.6464 </r>
       <r>    -5.0029    57.0123   303.8108 </r>
       <r>    -4.8948    86.5500   313.1691 </r>
       <r>    -4.7866    81.7357   322.0068 </r>
       <r>    -4.6785    62.5338   328.7682 </r>
       <r>    -4.5704    69.6635   336.3006 </r>
       <r>    -4.4623    70.9133   343.9681 </r>
       <r>    -4.3541    56.8438   350.1144 </r>
       <r>    -4.2460    58.1345   356.4002 </r>
       <r>    -4.1379    48.4109   361.6346 </r>
       <r>    -4.0298    34.4019   365.3543 </r>
       <r>    -3.9216    46.9375   370.4295 </r>
       <r>    -3.8135    47.7048   375.5876 </r>
       <r>    -3.7054    36.3607   379.5191 </r>
       <r>    -3.5973    27.8656   382.5320 </r>
       <r>    -3.4891    12.1996   383.8511 </r>
       <r>    -3.3810     1.3504   383.9971 </r>
       <r>    -3.2729     0.0264   384.0000 </r>
       <r>    -3.1648     0.0001   384.0000 </r>
       <r>    -3.0566     0.0000   384.0000 </r>
       <r>    -2.9485     0.0000   384.0000 </r>
       <r>    -2.8404     0.0000   384.0000 </r>
       <r>    -2.7323     0.0000   384.0000 </r>
       <r>    -2.6241     0.0000   384.0000 </r>
       <r>    -2.5160     0.0000   384.0000 </r>
       <r>    -2.4079     0.0000   384.0000 </r>
       <r>    -2.2998     0.0000   384.0000 </r>
       <r>    -2.1916     0.0000   384.0000 </r>
       <r>    -2.0835     0.0000   384.0000 </r>
       <r>    -1.9754     0.0000   384.0000 </r>
       <r>    -1.8673     0.0000   384.0000 </r>
       <r>    -1.7591     0.0000   384.0000 </r>
       <r>    -1.6510     0.0000   384.0000 </r>
       <r>    -1.5429     0.0000   384.0000 </r>
       <r>    -1.4348     0.0000   384.0000 </r>
       <r>    -1.3266     0.0000   384.0000 </r>
       <r>    -1.2185     0.0000   384.0000 </r>
       <r>    -1.1104     0.0000   384.0000 </r>
       <r>    -1.0023     0.0000   384.0000 </r>
       <r>    -0.8941     0.0000   384.0000 </r>
       <r>    -0.7860     0.0000   384.0000 </r>
       <r>    -0.6779     0.0000   384.0000 </r>
       <r>    -0.5698     0.0000   384.0000 </r>
       <r>    -0.4616     0.0000   384.0000 </r>
       <r>    -0.3535     0.0000   384.0000 </r>
       <r>    -0.2454     0.0000   384.0000 </r>
       <r>    -0.1373     0.0000   384.0000 </r>
       <r>    -0.0291     0.0000   384.0000 </r>
       <r>     0.0790     0.0000   384.0000 </r>
       <r>     0.1871     0.0000   384.0000 </r>
       <r>     0.2952     0.0000   384.0000 </r>
       <r>     0.4034     0.0000   384.0000 </r>
       <r>     0.5115     0.0000   384.0000 </r>
       <r>     0.6196     0.0000   384.0000 </r>
       <r>     0.7277     0.0000   384.0000 </r>
       <r>     0.8359     0.0000   384.0000 </r>
       <r>     0.9440     0.0000   384.0000 </r>
       <r>     1.0521     0.0000   384.0000 </r>
       <r>     1.1603     0.0000   384.0000 </r>
       <r>     1.2684     0.0000   384.0000 </r>
       <r>     1.3765     0.0000   384.0000 </r>
       <r>     1.4846     0.0011   384.0001 </r>
       <r>     1.5928     0.0744   384.0082 </r>
       <r>     1.7009     0.6182   384.0750 </r>
       <r>     1.8090     0.7366   384.1547 </r>
       <r>     1.9171     0.5406   384.2131 </r>
       <r>     2.0253     2.2198   384.4531 </r>
       <r>     2.1334     2.6951   384.7445 </r>
       <r>     2.2415     1.3917   384.8950 </r>
       <r>     2.3496     3.1048   385.2307 </r>
       <r>     2.4578     2.2562   385.4747 </r>
       <r>     2.5659     0.3228   385.5096 </r>
       <r>     2.6740     1.0242   385.6203 </r>
       <r>     2.7821     1.7018   385.8043 </r>
       <r>     2.8903     2.3380   386.0571 </r>
       <r>     2.9984     5.3044   386.6307 </r>
       <r>     3.1065     3.8563   387.0476 </r>
       <r>     3.2146     3.3678   387.4118 </r>
       <r>     3.3228     1.0267   387.5228 </r>
       <r>     3.4309     1.0180   387.6328 </r>
       <r>     3.5390     3.1658   387.9752 </r>
       <r>     3.6471     8.9148   388.9391 </r>
       <r>     3.7553     8.2858   389.8350 </r>
       <r>     3.8634     5.0787   390.3841 </r>
       <r>     3.9715     6.1616   391.0503 </r>
       <r>     4.0796     7.1464   391.8230 </r>
       <r>     4.1878     5.7008   392.4394 </r>
       <r>     4.2959     5.3066   393.0132 </r>
       <r>     4.4040    14.2904   394.5584 </r>
       <r>     4.5121    16.3478   396.3260 </r>
       <r>     4.6203    17.5273   398.2211 </r>
       <r>     4.7284    19.6201   400.3425 </r>
       <r>     4.8365    22.6304   402.7895 </r>
       <r>     4.9446    24.7042   405.4606 </r>
       <r>     5.0528    33.6065   409.0943 </r>
       <r>     5.1609    34.0953   412.7809 </r>
       <r>     5.2690    32.1793   416.2603 </r>
       <r>     5.3771    29.2082   419.4184 </r>
       <r>     5.4853    31.8557   422.8628 </r>
       <r>     5.5934    31.1508   426.2310 </r>
       <r>     5.7015    24.2590   428.8540 </r>
       <r>     5.8096    21.8639   431.2181 </r>
       <r>     5.9178    17.8015   433.1428 </r>
       <r>     6.0259     7.1702   433.9181 </r>
       <r>     6.1340     0.7418   433.9983 </r>
       <r>     6.2421     0.0155   434.0000 </r>
       <r>     6.3503     0.0001   434.0000 </r>
       <r>     6.4584     0.0000   434.0000 </r>
       <r>     6.5665     0.0000   434.0000 </r>
       <r>     6.6746     0.0000   434.0000 </r>
       <r>     6.7828     0.0000   434.0000 </r>
       <r>     6.8909     0.0000   434.0000 </r>
       <r>     6.9990     0.0000   434.0000 </r>
       <r>     7.1071     0.0000   434.0000 </r>
       <r>     7.2153     0.0000   434.0000 </r>
       <r>     7.3234     0.0000   434.0000 </r>
       <r>     7.4315     0.0000   434.0000 </r>
      </set>
     </set>
    </array>
   </total>
  </dos>
 </calculation>
 <structure name="finalpos" >
  <crystal>
   <varray name="basis" >
    <v>       9.61490200       0.00000000       0.00000000 </v>
    <v>       0.00000000       8.32674900       0.00000000 </v>
    <v>       0.00000000       0.00000000      21.56058800 </v>
   </varray>
   <i name="volume">   1726.15955402 </i>
   <varray name="rec_basis" >
    <v>       0.10400522       0.00000000       0.00000000 </v>
    <v>       0.00000000       0.12009489       0.00000000 </v>
    <v>       0.00000000       0.00000000       0.04638092 </v>
   </varray>
  </crystal>
  <varray name="positions" >
   <v>       0.17345600       0.98642100       0.00000000 </v>
   <v>       0.42345600       0.48642100       0.00000000 </v>
   <v>       0.09691200       0.50000000       0.10142900 </v>
   <v>       0.34691300       0.00000000       0.10142900 </v>
   <v>       0.15308800       0.33333300       0.00000000 </v>
   <v>       0.40308800       0.83333300       0.00000000 </v>
   <v>       0.17345600       0.68024600       0.00000000 </v>
   <v>       0.42345600       0.18024500       0.00000000 </v>
   <v>       0.07654400       0.15308700       0.10142900 </v>
   <v>       0.32654400       0.65308700       0.10142900 </v>
   <v>       0.07654400       0.84691300       0.10142900 </v>
   <v>       0.32654400       0.34691300       0.10142900 </v>
   <v>       0.17345600       0.31975500       0.20285800 </v>
   <v>       0.42345600       0.81975500       0.20285800 </v>
   <v>       0.12376352       0.78715631       0.31147225 </v>
   <v>       0.37376452       0.28715631       0.31147225 </v>
   <v>       0.15308700       0.66666700       0.20285800 </v>
   <v>       0.40308800       0.16666700       0.20285800 </v>
   <v>       0.17345600       0.01358000       0.20285800 </v>
   <v>       0.42345600       0.51358000       0.20285800 </v>
   <v>       0.02866719       0.48275091       0.31149339 </v>
   <v>       0.27866719       0.98274991       0.31149339 </v>
   <v>       0.09806324       0.23042398       0.31155136 </v>
   <v>       0.34806324       0.73042498       0.31155136 </v>
   <v>       0.67345600       0.98642100       0.00000000 </v>
   <v>       0.92345600       0.48642100       0.00000000 </v>
   <v>       0.59691300       0.50000000       0.10142900 </v>
   <v>       0.84691300       0.00000000       0.10142900 </v>
   <v>       0.65308800       0.33333300       0.00000000 </v>
   <v>       0.90308800       0.83333300       0.00000000 </v>
   <v>       0.67345600       0.68024500       0.00000000 </v>
   <v>       0.92345600       0.18024500       0.00000000 </v>
   <v>       0.57654400       0.15308700       0.10142900 </v>
   <v>       0.82654400       0.65308700       0.10142900 </v>
   <v>       0.57654400       0.84691300       0.10142900 </v>
   <v>       0.82654400       0.34691300       0.10142900 </v>
   <v>       0.67345600       0.31975500       0.20285800 </v>
   <v>       0.92345600       0.81975500       0.20285800 </v>
   <v>       0.62376452       0.78715631       0.31147225 </v>
   <v>       0.87376452       0.28715631       0.31147225 </v>
   <v>       0.65308800       0.66666700       0.20285800 </v>
   <v>       0.90308800       0.16666700       0.20285800 </v>
   <v>       0.67345600       0.01358000       0.20285800 </v>
   <v>       0.92345600       0.51357900       0.20285800 </v>
   <v>       0.52866719       0.48274991       0.31149339 </v>
   <v>       0.77866719       0.98274991       0.31149339 </v>
   <v>       0.59806324       0.23042398       0.31155136 </v>
   <v>       0.84806324       0.73042498       0.31155136 </v>
   <v>       0.00000000       0.66666700       0.14070600 </v>
   <v>       0.25000000       0.16666700       0.14070600 </v>
   <v>       0.00000000       0.33333300       0.06215200 </v>
   <v>       0.25000000       0.83333300       0.06215200 </v>
   <v>       0.00000000       0.00000000       0.03927700 </v>
   <v>       0.25000000       0.50000000       0.03927700 </v>
   <v>       0.00000000       0.66666700       0.26500900 </v>
   <v>       0.25000000       0.16666700       0.26500900 </v>
   <v>       0.00000000       0.33333300       0.24213400 </v>
   <v>       0.25000000       0.83333300       0.24213400 </v>
   <v>       0.00000000       0.00000000       0.16358100 </v>
   <v>       0.25000000       0.50000000       0.16358100 </v>
   <v>       0.50000000       0.66666700       0.14070600 </v>
   <v>       0.75000000       0.16666700       0.14070600 </v>
   <v>       0.50000000       0.33333300       0.06215200 </v>
   <v>       0.75000000       0.83333300       0.06215200 </v>
   <v>       0.50000000       0.00000000       0.03927700 </v>
   <v>       0.75000000       0.50000000       0.03927700 </v>
   <v>       0.50000000       0.66666700       0.26500900 </v>
   <v>       0.75000000       0.16666700       0.26500900 </v>
   <v>       0.50000000       0.33333300       0.24213400 </v>
   <v>       0.75000000       0.83333300       0.24213400 </v>
   <v>       0.50000000       0.00000000       0.16358100 </v>
   <v>       0.75000000       0.50000000       0.16358100 </v>
  </varray>
  <varray name="selective"  type="logical" >
   <v type="logical" >  F  F  F </v>
   <v type="logical" >  F  F  F </v>
   <v type="logical" >  F  F  F </v>
   <v type="logical" >  F  F  F </v>
   <v type="logical" >  F  F  F </v>
   <v type="logical" >  F  F  F </v>
   <v type="logical" >  F  F  F </v>
   <v type="logical" >  F  F  F </v>
   <v type="logical" >  F  F  F </v>
   <v type="logical" >  F  F  F </v>
   <v type="logical" >  F  F  F </v>
   <v type="logical" >  F  F  F </v>
   <v type="logical" >  F  F  F </v>
   <v type="logical" >  F  F  F </v>
   <v type="logical" >  T  T  T </v>
   <v type="logical" >  T  T  T </v>
   <v type="logical" >  F  F  F </v>
   <v type="logical" >  F  F  F </v>
   <v type="logical" >  F  F  F </v>
   <v type="logical" >  F  F  F </v>
   <v type="logical" >  T  T  T </v>
   <v type="logical" >  T  T  T </v>
   <v type="logical" >  T  T  T </v>
   <v type="logical" >  T  T  T </v>
   <v type="logical" >  F  F  F </v>
   <v type="logical" >  F  F  F </v>
   <v type="logical" >  F  F  F </v>
   <v type="logical" >  F  F  F </v>
   <v type="logical" >  F  F  F </v>
   <v type="logical" >  F  F  F </v>
   <v type="logical" >  F  F  F </v>
   <v type="logical" >  F  F  F </v>
   <v type="logical" >  F  F  F </v>
   <v type="logical" >  F  F  F </v>
   <v type="logical" >  F  F  F </v>
   <v type="logical" >  F  F  F </v>
   <v type="logical" >  F  F  F </v>
   <v type="logical" >  F  F  F </v>
   <v type="logical" >  T  T  T </v>
   <v type="logical" >  T  T  T </v>
   <v type="logical" >  F  F  F </v>
   <v type="logical" >  F  F  F </v>
   <v type="logical" >  F  F  F </v>
   <v type="logical" >  F  F  F </v>
   <v type="logical" >  T  T  T </v>
   <v type="logical" >  T  T  T </v>
   <v type="logical" >  T  T  T </v>
   <v type="logical" >  T  T  T </v>
   <v type="logical" >  F  F  F </v>
   <v type="logical" >  F  F  F </v>
   <v type="logical" >  F  F  F </v>
   <v type="logical" >  F  F  F </v>
   <v type="logical" >  F  F  F </v>
   <v type="logical" >  F  F  F </v>
   <v type="logical" >  F  F  F </v>
   <v type="logical" >  F  F  F </v>
   <v type="logical" >  F  F  F </v>
   <v type="logical" >  F  F  F </v>
   <v type="logical" >  F  F  F </v>
   <v type="logical" >  F  F  F </v>
   <v type="logical" >  F  F  F </v>
   <v type="logical" >  F  F  F </v>
   <v type="logical" >  F  F  F </v>
   <v type="logical" >  F  F  F </v>
   <v type="logical" >  F  F  F </v>
   <v type="logical" >  F  F  F </v>
   <v type="logical" >  F  F  F </v>
   <v type="logical" >  F  F  F </v>
   <v type="logical" >  F  F  F </v>
   <v type="logical" >  F  F  F </v>
   <v type="logical" >  F  F  F </v>
   <v type="logical" >  F  F  F </v>
  </varray>
  <nose>
   <v>      -3.00000000       0.00000000       0.00010000       0.00010000 </v>
  </nose>
 </structure>
</modeling>
