ni3al                                   
           1
     9.614902    0.000000    0.000000
     0.000000    8.326749    0.000000
     0.000000    0.000000   21.560588
   O    Al
    48    24
Direct configuration=     1
   0.17345600  0.98642100  0.00000000
   0.42345600  0.48642100  0.00000000
   0.09691200  0.50000000  0.10142900
   0.34691300  0.00000000  0.10142900
   0.15308800  0.33333300  0.00000000
   0.40308800  0.83333300  0.00000000
   0.17345600  0.68024600  0.00000000
   0.42345600  0.18024500  0.00000000
   0.07654400  0.15308700  0.10142900
   0.32654400  0.65308700  0.10142900
   0.07654400  0.84691300  0.10142900
   0.32654400  0.34691300  0.10142900
   0.17345600  0.31975500  0.20285800
   0.42345600  0.81975500  0.20285800
   0.09691200  0.83333300  0.30428600
   0.34691300  0.33333300  0.30428600
   0.15308700  0.66666700  0.20285800
   0.40308800  0.16666700  0.20285800
   0.17345600  0.01358000  0.20285800
   0.42345600  0.51358000  0.20285800
   0.07654400  0.48642100  0.30428600
   0.32654400  0.98642000  0.30428600
   0.07654400  0.18024500  0.30428600
   0.32654400  0.68024600  0.30428600
   0.67345600  0.98642100  0.00000000
   0.92345600  0.48642100  0.00000000
   0.59691300  0.50000000  0.10142900
   0.84691300  0.00000000  0.10142900
   0.65308800  0.33333300  0.00000000
   0.90308800  0.83333300  0.00000000
   0.67345600  0.68024500  0.00000000
   0.92345600  0.18024500  0.00000000
   0.57654400  0.15308700  0.10142900
   0.82654400  0.65308700  0.10142900
   0.57654400  0.84691300  0.10142900
   0.82654400  0.34691300  0.10142900
   0.67345600  0.31975500  0.20285800
   0.92345600  0.81975500  0.20285800
   0.59691300  0.83333300  0.30428600
   0.84691300  0.33333300  0.30428600
   0.65308800  0.66666700  0.20285800
   0.90308800  0.16666700  0.20285800
   0.67345600  0.01358000  0.20285800
   0.92345600  0.51357900  0.20285800
   0.57654400  0.48642000  0.30428600
   0.82654400  0.98642000  0.30428600
   0.57654400  0.18024500  0.30428600
   0.82654400  0.68024600  0.30428600
   0.00000000  0.66666700  0.14070600
   0.25000000  0.16666700  0.14070600
   0.00000000  0.33333300  0.06215200
   0.25000000  0.83333300  0.06215200
   0.00000000  0.00000000  0.03927700
   0.25000000  0.50000000  0.03927700
   0.00000000  0.66666700  0.26500900
   0.25000000  0.16666700  0.26500900
   0.00000000  0.33333300  0.24213400
   0.25000000  0.83333300  0.24213400
   0.00000000  0.00000000  0.16358100
   0.25000000  0.50000000  0.16358100
   0.50000000  0.66666700  0.14070600
   0.75000000  0.16666700  0.14070600
   0.50000000  0.33333300  0.06215200
   0.75000000  0.83333300  0.06215200
   0.50000000  0.00000000  0.03927700
   0.75000000  0.50000000  0.03927700
   0.50000000  0.66666700  0.26500900
   0.75000000  0.16666700  0.26500900
   0.50000000  0.33333300  0.24213400
   0.75000000  0.83333300  0.24213400
   0.50000000  0.00000000  0.16358100
   0.75000000  0.50000000  0.16358100
Direct configuration=     2
   0.17345600  0.98642100  0.00000000
   0.42345600  0.48642100  0.00000000
   0.09691200  0.50000000  0.10142900
   0.34691300  0.00000000  0.10142900
   0.15308800  0.33333300  0.00000000
   0.40308800  0.83333300  0.00000000
   0.17345600  0.68024600  0.00000000
   0.42345600  0.18024500  0.00000000
   0.07654400  0.15308700  0.10142900
   0.32654400  0.65308700  0.10142900
   0.07654400  0.84691300  0.10142900
   0.32654400  0.34691300  0.10142900
   0.17345600  0.31975500  0.20285800
   0.42345600  0.81975500  0.20285800
   0.09941677  0.83162146  0.30326991
   0.34941777  0.33162146  0.30326991
   0.15308700  0.66666700  0.20285800
   0.40308800  0.16666700  0.20285800
   0.17345600  0.01358000  0.20285800
   0.42345600  0.51358000  0.20285800
   0.07401687  0.48473857  0.30326755
   0.32401687  0.98473757  0.30326755
   0.07659063  0.18362540  0.30325983
   0.32659063  0.68362640  0.30325983
   0.67345600  0.98642100  0.00000000
   0.92345600  0.48642100  0.00000000
   0.59691300  0.50000000  0.10142900
   0.84691300  0.00000000  0.10142900
   0.65308800  0.33333300  0.00000000
   0.90308800  0.83333300  0.00000000
   0.67345600  0.68024500  0.00000000
   0.92345600  0.18024500  0.00000000
   0.57654400  0.15308700  0.10142900
   0.82654400  0.65308700  0.10142900
   0.57654400  0.84691300  0.10142900
   0.82654400  0.34691300  0.10142900
   0.67345600  0.31975500  0.20285800
   0.92345600  0.81975500  0.20285800
   0.59941777  0.83162146  0.30326991
   0.84941777  0.33162146  0.30326991
   0.65308800  0.66666700  0.20285800
   0.90308800  0.16666700  0.20285800
   0.67345600  0.01358000  0.20285800
   0.92345600  0.51357900  0.20285800
   0.57401687  0.48473757  0.30326755
   0.82401687  0.98473757  0.30326755
   0.57659063  0.18362540  0.30325983
   0.82659063  0.68362640  0.30325983
   0.00000000  0.66666700  0.14070600
   0.25000000  0.16666700  0.14070600
   0.00000000  0.33333300  0.06215200
   0.25000000  0.83333300  0.06215200
   0.00000000  0.00000000  0.03927700
   0.25000000  0.50000000  0.03927700
   0.00000000  0.66666700  0.26500900
   0.25000000  0.16666700  0.26500900
   0.00000000  0.33333300  0.24213400
   0.25000000  0.83333300  0.24213400
   0.00000000  0.00000000  0.16358100
   0.25000000  0.50000000  0.16358100
   0.50000000  0.66666700  0.14070600
   0.75000000  0.16666700  0.14070600
   0.50000000  0.33333300  0.06215200
   0.75000000  0.83333300  0.06215200
   0.50000000  0.00000000  0.03927700
   0.75000000  0.50000000  0.03927700
   0.50000000  0.66666700  0.26500900
   0.75000000  0.16666700  0.26500900
   0.50000000  0.33333300  0.24213400
   0.75000000  0.83333300  0.24213400
   0.50000000  0.00000000  0.16358100
   0.75000000  0.50000000  0.16358100
Direct configuration=     3
   0.17345600  0.98642100  0.00000000
   0.42345600  0.48642100  0.00000000
   0.09691200  0.50000000  0.10142900
   0.34691300  0.00000000  0.10142900
   0.15308800  0.33333300  0.00000000
   0.40308800  0.83333300  0.00000000
   0.17345600  0.68024600  0.00000000
   0.42345600  0.18024500  0.00000000
   0.07654400  0.15308700  0.10142900
   0.32654400  0.65308700  0.10142900
   0.07654400  0.84691300  0.10142900
   0.32654400  0.34691300  0.10142900
   0.17345600  0.31975500  0.20285800
   0.42345600  0.81975500  0.20285800
   0.10384990  0.82859225  0.30147157
   0.35385090  0.32859225  0.30147157
   0.15308700  0.66666700  0.20285800
   0.40308800  0.16666700  0.20285800
   0.17345600  0.01358000  0.20285800
   0.42345600  0.51358000  0.20285800
   0.06954415  0.48176089  0.30146502
   0.31954415  0.98175989  0.30146502
   0.07667315  0.18960830  0.30144365
   0.32667315  0.68960930  0.30144365
   0.67345600  0.98642100  0.00000000
   0.92345600  0.48642100  0.00000000
   0.59691300  0.50000000  0.10142900
   0.84691300  0.00000000  0.10142900
   0.65308800  0.33333300  0.00000000
   0.90308800  0.83333300  0.00000000
   0.67345600  0.68024500  0.00000000
   0.92345600  0.18024500  0.00000000
   0.57654400  0.15308700  0.10142900
   0.82654400  0.65308700  0.10142900
   0.57654400  0.84691300  0.10142900
   0.82654400  0.34691300  0.10142900
   0.67345600  0.31975500  0.20285800
   0.92345600  0.81975500  0.20285800
   0.60385090  0.82859225  0.30147157
   0.85385090  0.32859225  0.30147157
   0.65308800  0.66666700  0.20285800
   0.90308800  0.16666700  0.20285800
   0.67345600  0.01358000  0.20285800
   0.92345600  0.51357900  0.20285800
   0.56954415  0.48175989  0.30146502
   0.81954415  0.98175989  0.30146502
   0.57667315  0.18960830  0.30144365
   0.82667315  0.68960930  0.30144365
   0.00000000  0.66666700  0.14070600
   0.25000000  0.16666700  0.14070600
   0.00000000  0.33333300  0.06215200
   0.25000000  0.83333300  0.06215200
   0.00000000  0.00000000  0.03927700
   0.25000000  0.50000000  0.03927700
   0.00000000  0.66666700  0.26500900
   0.25000000  0.16666700  0.26500900
   0.00000000  0.33333300  0.24213400
   0.25000000  0.83333300  0.24213400
   0.00000000  0.00000000  0.16358100
   0.25000000  0.50000000  0.16358100
   0.50000000  0.66666700  0.14070600
   0.75000000  0.16666700  0.14070600
   0.50000000  0.33333300  0.06215200
   0.75000000  0.83333300  0.06215200
   0.50000000  0.00000000  0.03927700
   0.75000000  0.50000000  0.03927700
   0.50000000  0.66666700  0.26500900
   0.75000000  0.16666700  0.26500900
   0.50000000  0.33333300  0.24213400
   0.75000000  0.83333300  0.24213400
   0.50000000  0.00000000  0.16358100
   0.75000000  0.50000000  0.16358100
Direct configuration=     4
   0.17345600  0.98642100  0.00000000
   0.42345600  0.48642100  0.00000000
   0.09691200  0.50000000  0.10142900
   0.34691300  0.00000000  0.10142900
   0.15308800  0.33333300  0.00000000
   0.40308800  0.83333300  0.00000000
   0.17345600  0.68024600  0.00000000
   0.42345600  0.18024500  0.00000000
   0.07654400  0.15308700  0.10142900
   0.32654400  0.65308700  0.10142900
   0.07654400  0.84691300  0.10142900
   0.32654400  0.34691300  0.10142900
   0.17345600  0.31975500  0.20285800
   0.42345600  0.81975500  0.20285800
   0.10312676  0.82908637  0.30176491
   0.35312776  0.32908637  0.30176491
   0.15308700  0.66666700  0.20285800
   0.40308800  0.16666700  0.20285800
   0.17345600  0.01358000  0.20285800
   0.42345600  0.51358000  0.20285800
   0.07027374  0.48224661  0.30175905
   0.32027374  0.98224561  0.30175905
   0.07665969  0.18863237  0.30173990
   0.32665969  0.68863337  0.30173990
   0.67345600  0.98642100  0.00000000
   0.92345600  0.48642100  0.00000000
   0.59691300  0.50000000  0.10142900
   0.84691300  0.00000000  0.10142900
   0.65308800  0.33333300  0.00000000
   0.90308800  0.83333300  0.00000000
   0.67345600  0.68024500  0.00000000
   0.92345600  0.18024500  0.00000000
   0.57654400  0.15308700  0.10142900
   0.82654400  0.65308700  0.10142900
   0.57654400  0.84691300  0.10142900
   0.82654400  0.34691300  0.10142900
   0.67345600  0.31975500  0.20285800
   0.92345600  0.81975500  0.20285800
   0.60312776  0.82908637  0.30176491
   0.85312776  0.32908637  0.30176491
   0.65308800  0.66666700  0.20285800
   0.90308800  0.16666700  0.20285800
   0.67345600  0.01358000  0.20285800
   0.92345600  0.51357900  0.20285800
   0.57027374  0.48224561  0.30175905
   0.82027374  0.98224561  0.30175905
   0.57665969  0.18863237  0.30173990
   0.82665969  0.68863337  0.30173990
   0.00000000  0.66666700  0.14070600
   0.25000000  0.16666700  0.14070600
   0.00000000  0.33333300  0.06215200
   0.25000000  0.83333300  0.06215200
   0.00000000  0.00000000  0.03927700
   0.25000000  0.50000000  0.03927700
   0.00000000  0.66666700  0.26500900
   0.25000000  0.16666700  0.26500900
   0.00000000  0.33333300  0.24213400
   0.25000000  0.83333300  0.24213400
   0.00000000  0.00000000  0.16358100
   0.25000000  0.50000000  0.16358100
   0.50000000  0.66666700  0.14070600
   0.75000000  0.16666700  0.14070600
   0.50000000  0.33333300  0.06215200
   0.75000000  0.83333300  0.06215200
   0.50000000  0.00000000  0.03927700
   0.75000000  0.50000000  0.03927700
   0.50000000  0.66666700  0.26500900
   0.75000000  0.16666700  0.26500900
   0.50000000  0.33333300  0.24213400
   0.75000000  0.83333300  0.24213400
   0.50000000  0.00000000  0.16358100
   0.75000000  0.50000000  0.16358100
Direct configuration=     5
   0.17345600  0.98642100  0.00000000
   0.42345600  0.48642100  0.00000000
   0.09691200  0.50000000  0.10142900
   0.34691300  0.00000000  0.10142900
   0.15308800  0.33333300  0.00000000
   0.40308800  0.83333300  0.00000000
   0.17345600  0.68024600  0.00000000
   0.42345600  0.18024500  0.00000000
   0.07654400  0.15308700  0.10142900
   0.32654400  0.65308700  0.10142900
   0.07654400  0.84691300  0.10142900
   0.32654400  0.34691300  0.10142900
   0.17345600  0.31975500  0.20285800
   0.42345600  0.81975500  0.20285800
   0.10361631  0.82836058  0.30200454
   0.35361731  0.32836058  0.30200454
   0.15308700  0.66666700  0.20285800
   0.40308800  0.16666700  0.20285800
   0.17345600  0.01358000  0.20285800
   0.42345600  0.51358000  0.20285800
   0.06952998  0.48207002  0.30206236
   0.31952998  0.98206902  0.30206236
   0.07697756  0.18948276  0.30201787
   0.32697756  0.68948376  0.30201787
   0.67345600  0.98642100  0.00000000
   0.92345600  0.48642100  0.00000000
   0.59691300  0.50000000  0.10142900
   0.84691300  0.00000000  0.10142900
   0.65308800  0.33333300  0.00000000
   0.90308800  0.83333300  0.00000000
   0.67345600  0.68024500  0.00000000
   0.92345600  0.18024500  0.00000000
   0.57654400  0.15308700  0.10142900
   0.82654400  0.65308700  0.10142900
   0.57654400  0.84691300  0.10142900
   0.82654400  0.34691300  0.10142900
   0.67345600  0.31975500  0.20285800
   0.92345600  0.81975500  0.20285800
   0.60361731  0.82836058  0.30200454
   0.85361731  0.32836058  0.30200454
   0.65308800  0.66666700  0.20285800
   0.90308800  0.16666700  0.20285800
   0.67345600  0.01358000  0.20285800
   0.92345600  0.51357900  0.20285800
   0.56952998  0.48206902  0.30206236
   0.81952998  0.98206902  0.30206236
   0.57697756  0.18948276  0.30201787
   0.82697756  0.68948376  0.30201787
   0.00000000  0.66666700  0.14070600
   0.25000000  0.16666700  0.14070600
   0.00000000  0.33333300  0.06215200
   0.25000000  0.83333300  0.06215200
   0.00000000  0.00000000  0.03927700
   0.25000000  0.50000000  0.03927700
   0.00000000  0.66666700  0.26500900
   0.25000000  0.16666700  0.26500900
   0.00000000  0.33333300  0.24213400
   0.25000000  0.83333300  0.24213400
   0.00000000  0.00000000  0.16358100
   0.25000000  0.50000000  0.16358100
   0.50000000  0.66666700  0.14070600
   0.75000000  0.16666700  0.14070600
   0.50000000  0.33333300  0.06215200
   0.75000000  0.83333300  0.06215200
   0.50000000  0.00000000  0.03927700
   0.75000000  0.50000000  0.03927700
   0.50000000  0.66666700  0.26500900
   0.75000000  0.16666700  0.26500900
   0.50000000  0.33333300  0.24213400
   0.75000000  0.83333300  0.24213400
   0.50000000  0.00000000  0.16358100
   0.75000000  0.50000000  0.16358100
Direct configuration=     6
   0.17345600  0.98642100  0.00000000
   0.42345600  0.48642100  0.00000000
   0.09691200  0.50000000  0.10142900
   0.34691300  0.00000000  0.10142900
   0.15308800  0.33333300  0.00000000
   0.40308800  0.83333300  0.00000000
   0.17345600  0.68024600  0.00000000
   0.42345600  0.18024500  0.00000000
   0.07654400  0.15308700  0.10142900
   0.32654400  0.65308700  0.10142900
   0.07654400  0.84691300  0.10142900
   0.32654400  0.34691300  0.10142900
   0.17345600  0.31975500  0.20285800
   0.42345600  0.81975500  0.20285800
   0.10508495  0.82618320  0.30272342
   0.35508595  0.32618320  0.30272342
   0.15308700  0.66666700  0.20285800
   0.40308800  0.16666700  0.20285800
   0.17345600  0.01358000  0.20285800
   0.42345600  0.51358000  0.20285800
   0.06729870  0.48154024  0.30297230
   0.31729870  0.98153924  0.30297230
   0.07793117  0.19203392  0.30285176
   0.32793117  0.69203492  0.30285176
   0.67345600  0.98642100  0.00000000
   0.92345600  0.48642100  0.00000000
   0.59691300  0.50000000  0.10142900
   0.84691300  0.00000000  0.10142900
   0.65308800  0.33333300  0.00000000
   0.90308800  0.83333300  0.00000000
   0.67345600  0.68024500  0.00000000
   0.92345600  0.18024500  0.00000000
   0.57654400  0.15308700  0.10142900
   0.82654400  0.65308700  0.10142900
   0.57654400  0.84691300  0.10142900
   0.82654400  0.34691300  0.10142900
   0.67345600  0.31975500  0.20285800
   0.92345600  0.81975500  0.20285800
   0.60508595  0.82618320  0.30272342
   0.85508595  0.32618320  0.30272342
   0.65308800  0.66666700  0.20285800
   0.90308800  0.16666700  0.20285800
   0.67345600  0.01358000  0.20285800
   0.92345600  0.51357900  0.20285800
   0.56729870  0.48153924  0.30297230
   0.81729870  0.98153924  0.30297230
   0.57793117  0.19203392  0.30285176
   0.82793117  0.69203492  0.30285176
   0.00000000  0.66666700  0.14070600
   0.25000000  0.16666700  0.14070600
   0.00000000  0.33333300  0.06215200
   0.25000000  0.83333300  0.06215200
   0.00000000  0.00000000  0.03927700
   0.25000000  0.50000000  0.03927700
   0.00000000  0.66666700  0.26500900
   0.25000000  0.16666700  0.26500900
   0.00000000  0.33333300  0.24213400
   0.25000000  0.83333300  0.24213400
   0.00000000  0.00000000  0.16358100
   0.25000000  0.50000000  0.16358100
   0.50000000  0.66666700  0.14070600
   0.75000000  0.16666700  0.14070600
   0.50000000  0.33333300  0.06215200
   0.75000000  0.83333300  0.06215200
   0.50000000  0.00000000  0.03927700
   0.75000000  0.50000000  0.03927700
   0.50000000  0.66666700  0.26500900
   0.75000000  0.16666700  0.26500900
   0.50000000  0.33333300  0.24213400
   0.75000000  0.83333300  0.24213400
   0.50000000  0.00000000  0.16358100
   0.75000000  0.50000000  0.16358100
Direct configuration=     7
   0.17345600  0.98642100  0.00000000
   0.42345600  0.48642100  0.00000000
   0.09691200  0.50000000  0.10142900
   0.34691300  0.00000000  0.10142900
   0.15308800  0.33333300  0.00000000
   0.40308800  0.83333300  0.00000000
   0.17345600  0.68024600  0.00000000
   0.42345600  0.18024500  0.00000000
   0.07654400  0.15308700  0.10142900
   0.32654400  0.65308700  0.10142900
   0.07654400  0.84691300  0.10142900
   0.32654400  0.34691300  0.10142900
   0.17345600  0.31975500  0.20285800
   0.42345600  0.81975500  0.20285800
   0.10802222  0.82182845  0.30416119
   0.35802322  0.32182845  0.30416119
   0.15308700  0.66666700  0.20285800
   0.40308800  0.16666700  0.20285800
   0.17345600  0.01358000  0.20285800
   0.42345600  0.51358000  0.20285800
   0.06283614  0.48048068  0.30479217
   0.31283614  0.98047968  0.30479217
   0.07983838  0.19713626  0.30451955
   0.32983838  0.69713726  0.30451955
   0.67345600  0.98642100  0.00000000
   0.92345600  0.48642100  0.00000000
   0.59691300  0.50000000  0.10142900
   0.84691300  0.00000000  0.10142900
   0.65308800  0.33333300  0.00000000
   0.90308800  0.83333300  0.00000000
   0.67345600  0.68024500  0.00000000
   0.92345600  0.18024500  0.00000000
   0.57654400  0.15308700  0.10142900
   0.82654400  0.65308700  0.10142900
   0.57654400  0.84691300  0.10142900
   0.82654400  0.34691300  0.10142900
   0.67345600  0.31975500  0.20285800
   0.92345600  0.81975500  0.20285800
   0.60802322  0.82182845  0.30416119
   0.85802322  0.32182845  0.30416119
   0.65308800  0.66666700  0.20285800
   0.90308800  0.16666700  0.20285800
   0.67345600  0.01358000  0.20285800
   0.92345600  0.51357900  0.20285800
   0.56283614  0.48047968  0.30479217
   0.81283614  0.98047968  0.30479217
   0.57983838  0.19713626  0.30451955
   0.82983838  0.69713726  0.30451955
   0.00000000  0.66666700  0.14070600
   0.25000000  0.16666700  0.14070600
   0.00000000  0.33333300  0.06215200
   0.25000000  0.83333300  0.06215200
   0.00000000  0.00000000  0.03927700
   0.25000000  0.50000000  0.03927700
   0.00000000  0.66666700  0.26500900
   0.25000000  0.16666700  0.26500900
   0.00000000  0.33333300  0.24213400
   0.25000000  0.83333300  0.24213400
   0.00000000  0.00000000  0.16358100
   0.25000000  0.50000000  0.16358100
   0.50000000  0.66666700  0.14070600
   0.75000000  0.16666700  0.14070600
   0.50000000  0.33333300  0.06215200
   0.75000000  0.83333300  0.06215200
   0.50000000  0.00000000  0.03927700
   0.75000000  0.50000000  0.03927700
   0.50000000  0.66666700  0.26500900
   0.75000000  0.16666700  0.26500900
   0.50000000  0.33333300  0.24213400
   0.75000000  0.83333300  0.24213400
   0.50000000  0.00000000  0.16358100
   0.75000000  0.50000000  0.16358100
Direct configuration=     8
   0.17345600  0.98642100  0.00000000
   0.42345600  0.48642100  0.00000000
   0.09691200  0.50000000  0.10142900
   0.34691300  0.00000000  0.10142900
   0.15308800  0.33333300  0.00000000
   0.40308800  0.83333300  0.00000000
   0.17345600  0.68024600  0.00000000
   0.42345600  0.18024500  0.00000000
   0.07654400  0.15308700  0.10142900
   0.32654400  0.65308700  0.10142900
   0.07654400  0.84691300  0.10142900
   0.32654400  0.34691300  0.10142900
   0.17345600  0.31975500  0.20285800
   0.42345600  0.81975500  0.20285800
   0.11389678  0.81311893  0.30703671
   0.36389778  0.31311893  0.30703671
   0.15308700  0.66666700  0.20285800
   0.40308800  0.16666700  0.20285800
   0.17345600  0.01358000  0.20285800
   0.42345600  0.51358000  0.20285800
   0.05391102  0.47836157  0.30843192
   0.30391102  0.97836057  0.30843192
   0.08365282  0.20734092  0.30785511
   0.33365282  0.70734192  0.30785511
   0.67345600  0.98642100  0.00000000
   0.92345600  0.48642100  0.00000000
   0.59691300  0.50000000  0.10142900
   0.84691300  0.00000000  0.10142900
   0.65308800  0.33333300  0.00000000
   0.90308800  0.83333300  0.00000000
   0.67345600  0.68024500  0.00000000
   0.92345600  0.18024500  0.00000000
   0.57654400  0.15308700  0.10142900
   0.82654400  0.65308700  0.10142900
   0.57654400  0.84691300  0.10142900
   0.82654400  0.34691300  0.10142900
   0.67345600  0.31975500  0.20285800
   0.92345600  0.81975500  0.20285800
   0.61389778  0.81311893  0.30703671
   0.86389778  0.31311893  0.30703671
   0.65308800  0.66666700  0.20285800
   0.90308800  0.16666700  0.20285800
   0.67345600  0.01358000  0.20285800
   0.92345600  0.51357900  0.20285800
   0.55391102  0.47836057  0.30843192
   0.80391102  0.97836057  0.30843192
   0.58365282  0.20734092  0.30785511
   0.83365282  0.70734192  0.30785511
   0.00000000  0.66666700  0.14070600
   0.25000000  0.16666700  0.14070600
   0.00000000  0.33333300  0.06215200
   0.25000000  0.83333300  0.06215200
   0.00000000  0.00000000  0.03927700
   0.25000000  0.50000000  0.03927700
   0.00000000  0.66666700  0.26500900
   0.25000000  0.16666700  0.26500900
   0.00000000  0.33333300  0.24213400
   0.25000000  0.83333300  0.24213400
   0.00000000  0.00000000  0.16358100
   0.25000000  0.50000000  0.16358100
   0.50000000  0.66666700  0.14070600
   0.75000000  0.16666700  0.14070600
   0.50000000  0.33333300  0.06215200
   0.75000000  0.83333300  0.06215200
   0.50000000  0.00000000  0.03927700
   0.75000000  0.50000000  0.03927700
   0.50000000  0.66666700  0.26500900
   0.75000000  0.16666700  0.26500900
   0.50000000  0.33333300  0.24213400
   0.75000000  0.83333300  0.24213400
   0.50000000  0.00000000  0.16358100
   0.75000000  0.50000000  0.16358100
Direct configuration=     9
   0.17345600  0.98642100  0.00000000
   0.42345600  0.48642100  0.00000000
   0.09691200  0.50000000  0.10142900
   0.34691300  0.00000000  0.10142900
   0.15308800  0.33333300  0.00000000
   0.40308800  0.83333300  0.00000000
   0.17345600  0.68024600  0.00000000
   0.42345600  0.18024500  0.00000000
   0.07654400  0.15308700  0.10142900
   0.32654400  0.65308700  0.10142900
   0.07654400  0.84691300  0.10142900
   0.32654400  0.34691300  0.10142900
   0.17345600  0.31975500  0.20285800
   0.42345600  0.81975500  0.20285800
   0.12564588  0.79569991  0.31278777
   0.37564688  0.29569991  0.31278777
   0.15308700  0.66666700  0.20285800
   0.40308800  0.16666700  0.20285800
   0.17345600  0.01358000  0.20285800
   0.42345600  0.51358000  0.20285800
   0.03606079  0.47412334  0.31571142
   0.28606079  0.97412234  0.31571142
   0.09128168  0.22775025  0.31452625
   0.34128168  0.72775125  0.31452625
   0.67345600  0.98642100  0.00000000
   0.92345600  0.48642100  0.00000000
   0.59691300  0.50000000  0.10142900
   0.84691300  0.00000000  0.10142900
   0.65308800  0.33333300  0.00000000
   0.90308800  0.83333300  0.00000000
   0.67345600  0.68024500  0.00000000
   0.92345600  0.18024500  0.00000000
   0.57654400  0.15308700  0.10142900
   0.82654400  0.65308700  0.10142900
   0.57654400  0.84691300  0.10142900
   0.82654400  0.34691300  0.10142900
   0.67345600  0.31975500  0.20285800
   0.92345600  0.81975500  0.20285800
   0.62564688  0.79569991  0.31278777
   0.87564688  0.29569991  0.31278777
   0.65308800  0.66666700  0.20285800
   0.90308800  0.16666700  0.20285800
   0.67345600  0.01358000  0.20285800
   0.92345600  0.51357900  0.20285800
   0.53606079  0.47412234  0.31571142
   0.78606079  0.97412234  0.31571142
   0.59128168  0.22775025  0.31452625
   0.84128168  0.72775125  0.31452625
   0.00000000  0.66666700  0.14070600
   0.25000000  0.16666700  0.14070600
   0.00000000  0.33333300  0.06215200
   0.25000000  0.83333300  0.06215200
   0.00000000  0.00000000  0.03927700
   0.25000000  0.50000000  0.03927700
   0.00000000  0.66666700  0.26500900
   0.25000000  0.16666700  0.26500900
   0.00000000  0.33333300  0.24213400
   0.25000000  0.83333300  0.24213400
   0.00000000  0.00000000  0.16358100
   0.25000000  0.50000000  0.16358100
   0.50000000  0.66666700  0.14070600
   0.75000000  0.16666700  0.14070600
   0.50000000  0.33333300  0.06215200
   0.75000000  0.83333300  0.06215200
   0.50000000  0.00000000  0.03927700
   0.75000000  0.50000000  0.03927700
   0.50000000  0.66666700  0.26500900
   0.75000000  0.16666700  0.26500900
   0.50000000  0.33333300  0.24213400
   0.75000000  0.83333300  0.24213400
   0.50000000  0.00000000  0.16358100
   0.75000000  0.50000000  0.16358100
Direct configuration=    10
   0.17345600  0.98642100  0.00000000
   0.42345600  0.48642100  0.00000000
   0.09691200  0.50000000  0.10142900
   0.34691300  0.00000000  0.10142900
   0.15308800  0.33333300  0.00000000
   0.40308800  0.83333300  0.00000000
   0.17345600  0.68024600  0.00000000
   0.42345600  0.18024500  0.00000000
   0.07654400  0.15308700  0.10142900
   0.32654400  0.65308700  0.10142900
   0.07654400  0.84691300  0.10142900
   0.32654400  0.34691300  0.10142900
   0.17345600  0.31975500  0.20285800
   0.42345600  0.81975500  0.20285800
   0.11759777  0.80763190  0.30884831
   0.36759877  0.30763190  0.30884831
   0.15308700  0.66666700  0.20285800
   0.40308800  0.16666700  0.20285800
   0.17345600  0.01358000  0.20285800
   0.42345600  0.51358000  0.20285800
   0.04828816  0.47702651  0.31072498
   0.29828816  0.97702551  0.31072498
   0.08605592  0.21376990  0.30995654
   0.33605592  0.71377090  0.30995654
   0.67345600  0.98642100  0.00000000
   0.92345600  0.48642100  0.00000000
   0.59691300  0.50000000  0.10142900
   0.84691300  0.00000000  0.10142900
   0.65308800  0.33333300  0.00000000
   0.90308800  0.83333300  0.00000000
   0.67345600  0.68024500  0.00000000
   0.92345600  0.18024500  0.00000000
   0.57654400  0.15308700  0.10142900
   0.82654400  0.65308700  0.10142900
   0.57654400  0.84691300  0.10142900
   0.82654400  0.34691300  0.10142900
   0.67345600  0.31975500  0.20285800
   0.92345600  0.81975500  0.20285800
   0.61759877  0.80763190  0.30884831
   0.86759877  0.30763190  0.30884831
   0.65308800  0.66666700  0.20285800
   0.90308800  0.16666700  0.20285800
   0.67345600  0.01358000  0.20285800
   0.92345600  0.51357900  0.20285800
   0.54828816  0.47702551  0.31072498
   0.79828816  0.97702551  0.31072498
   0.58605592  0.21376990  0.30995654
   0.83605592  0.71377090  0.30995654
   0.00000000  0.66666700  0.14070600
   0.25000000  0.16666700  0.14070600
   0.00000000  0.33333300  0.06215200
   0.25000000  0.83333300  0.06215200
   0.00000000  0.00000000  0.03927700
   0.25000000  0.50000000  0.03927700
   0.00000000  0.66666700  0.26500900
   0.25000000  0.16666700  0.26500900
   0.00000000  0.33333300  0.24213400
   0.25000000  0.83333300  0.24213400
   0.00000000  0.00000000  0.16358100
   0.25000000  0.50000000  0.16358100
   0.50000000  0.66666700  0.14070600
   0.75000000  0.16666700  0.14070600
   0.50000000  0.33333300  0.06215200
   0.75000000  0.83333300  0.06215200
   0.50000000  0.00000000  0.03927700
   0.75000000  0.50000000  0.03927700
   0.50000000  0.66666700  0.26500900
   0.75000000  0.16666700  0.26500900
   0.50000000  0.33333300  0.24213400
   0.75000000  0.83333300  0.24213400
   0.50000000  0.00000000  0.16358100
   0.75000000  0.50000000  0.16358100
Direct configuration=    11
   0.17345600  0.98642100  0.00000000
   0.42345600  0.48642100  0.00000000
   0.09691200  0.50000000  0.10142900
   0.34691300  0.00000000  0.10142900
   0.15308800  0.33333300  0.00000000
   0.40308800  0.83333300  0.00000000
   0.17345600  0.68024600  0.00000000
   0.42345600  0.18024500  0.00000000
   0.07654400  0.15308700  0.10142900
   0.32654400  0.65308700  0.10142900
   0.07654400  0.84691300  0.10142900
   0.32654400  0.34691300  0.10142900
   0.17345600  0.31975500  0.20285800
   0.42345600  0.81975500  0.20285800
   0.11932340  0.80507352  0.30969298
   0.36932440  0.30507352  0.30969298
   0.15308700  0.66666700  0.20285800
   0.40308800  0.16666700  0.20285800
   0.17345600  0.01358000  0.20285800
   0.42345600  0.51358000  0.20285800
   0.04566644  0.47640403  0.31179414
   0.29566644  0.97640303  0.31179414
   0.08717640  0.21676749  0.31093635
   0.33717640  0.71676849  0.31093635
   0.67345600  0.98642100  0.00000000
   0.92345600  0.48642100  0.00000000
   0.59691300  0.50000000  0.10142900
   0.84691300  0.00000000  0.10142900
   0.65308800  0.33333300  0.00000000
   0.90308800  0.83333300  0.00000000
   0.67345600  0.68024500  0.00000000
   0.92345600  0.18024500  0.00000000
   0.57654400  0.15308700  0.10142900
   0.82654400  0.65308700  0.10142900
   0.57654400  0.84691300  0.10142900
   0.82654400  0.34691300  0.10142900
   0.67345600  0.31975500  0.20285800
   0.92345600  0.81975500  0.20285800
   0.61932440  0.80507352  0.30969298
   0.86932440  0.30507352  0.30969298
   0.65308800  0.66666700  0.20285800
   0.90308800  0.16666700  0.20285800
   0.67345600  0.01358000  0.20285800
   0.92345600  0.51357900  0.20285800
   0.54566644  0.47640303  0.31179414
   0.79566644  0.97640303  0.31179414
   0.58717640  0.21676749  0.31093635
   0.83717640  0.71676849  0.31093635
   0.00000000  0.66666700  0.14070600
   0.25000000  0.16666700  0.14070600
   0.00000000  0.33333300  0.06215200
   0.25000000  0.83333300  0.06215200
   0.00000000  0.00000000  0.03927700
   0.25000000  0.50000000  0.03927700
   0.00000000  0.66666700  0.26500900
   0.25000000  0.16666700  0.26500900