  64  64   0   0
  0.2697124E+02  0.9614902E-09  0.8326749E-09  0.2156059E-08  0.5000000E-15
  1.000000000000000E-004
  CAR 
 ni3al                                   
      7.88441514    -23.39580190  301      0.60335634      1.00000000
    -23.396  0.0000E+00  0.0000E+00
    -23.292  0.0000E+00  0.0000E+00
    -23.187  0.0000E+00  0.0000E+00
    -23.083  0.0000E+00  0.0000E+00
    -22.979  0.0000E+00  0.0000E+00
    -22.874  0.0000E+00  0.0000E+00
    -22.770  0.0000E+00  0.0000E+00
    -22.666  0.0000E+00  0.0000E+00
    -22.562  0.2958E-18  0.3084E-19
    -22.457  0.2165E-13  0.2257E-14
    -22.353  0.2211E-09  0.2305E-10
    -22.249  0.2790E-06  0.2911E-07
    -22.145  0.4776E-04  0.5009E-05
    -22.040  0.1388E-02  0.1498E-03
    -21.936  0.9755E-02  0.1167E-02
    -21.832  0.2172E-01  0.3431E-02
    -21.728  0.2134E-01  0.5656E-02
    -21.623  0.2760E-01  0.8534E-02
    -21.519  0.2705E-01  0.1135E-01
    -21.415  0.2425E-01  0.1388E-01
    -21.310  0.3177E-01  0.1719E-01
    -21.206  0.3533E-01  0.2088E-01
    -21.102  0.3441E-01  0.2447E-01
    -20.998  0.2660E-01  0.2724E-01
    -20.893  0.5774E-01  0.3326E-01
    -20.789  0.8771E-01  0.4241E-01
    -20.685  0.8088E-01  0.5084E-01
    -20.581  0.2357E-01  0.5330E-01
    -20.476  0.9626E-02  0.5430E-01
    -20.372  0.4266E-01  0.5875E-01
    -20.268  0.9048E-01  0.6818E-01
    -20.164  0.1082E+00  0.7947E-01
    -20.059  0.1375E+00  0.9380E-01
    -19.955  0.1471E+00  0.1091E+00
    -19.851  0.1482E+00  0.1246E+00
    -19.746  0.1724E+00  0.1426E+00
    -19.642  0.1665E+00  0.1599E+00
    -19.538  0.9754E-01  0.1701E+00
    -19.434  0.5175E-01  0.1755E+00
    -19.329  0.5252E-01  0.1810E+00
    -19.225  0.5270E-01  0.1865E+00
    -19.121  0.5849E-01  0.1926E+00
    -19.017  0.8029E-01  0.2009E+00
    -18.912  0.1166E+00  0.2131E+00
    -18.808  0.1493E+00  0.2287E+00
    -18.704  0.8986E-01  0.2380E+00
    -18.600  0.1809E-01  0.2399E+00
    -18.495  0.8603E-03  0.2400E+00
    -18.391  0.7234E-05  0.2400E+00
    -18.287  0.9088E-08  0.2400E+00
    -18.182  0.1546E-11  0.2400E+00
    -18.078  0.3254E-16  0.2400E+00
    -17.974  0.0000E+00  0.2400E+00
    -17.870  0.0000E+00  0.2400E+00
    -17.765  0.0000E+00  0.2400E+00
    -17.661  0.0000E+00  0.2400E+00
    -17.557  0.0000E+00  0.2400E+00
    -17.453  0.0000E+00  0.2400E+00
    -17.348  0.0000E+00  0.2400E+00
    -17.244  0.0000E+00  0.2400E+00
    -17.140  0.0000E+00  0.2400E+00
    -17.035  0.0000E+00  0.2400E+00
    -16.931  0.0000E+00  0.2400E+00
    -16.827  0.0000E+00  0.2400E+00
    -16.723  0.0000E+00  0.2400E+00
    -16.618  0.0000E+00  0.2400E+00
    -16.514  0.0000E+00  0.2400E+00
    -16.410  0.0000E+00  0.2400E+00
    -16.306  0.0000E+00  0.2400E+00
    -16.201  0.0000E+00  0.2400E+00
    -16.097  0.0000E+00  0.2400E+00
    -15.993  0.0000E+00  0.2400E+00
    -15.889  0.0000E+00  0.2400E+00
    -15.784  0.0000E+00  0.2400E+00
    -15.680  0.0000E+00  0.2400E+00
    -15.576  0.0000E+00  0.2400E+00
    -15.471  0.0000E+00  0.2400E+00
    -15.367  0.0000E+00  0.2400E+00
    -15.263  0.0000E+00  0.2400E+00
    -15.159  0.0000E+00  0.2400E+00
    -15.054  0.0000E+00  0.2400E+00
    -14.950  0.0000E+00  0.2400E+00
    -14.846  0.0000E+00  0.2400E+00
    -14.742  0.0000E+00  0.2400E+00
    -14.637  0.0000E+00  0.2400E+00
    -14.533  0.0000E+00  0.2400E+00
    -14.429  0.0000E+00  0.2400E+00
    -14.325  0.0000E+00  0.2400E+00
    -14.220  0.0000E+00  0.2400E+00
    -14.116  0.0000E+00  0.2400E+00
    -14.012  0.0000E+00  0.2400E+00
    -13.907  0.0000E+00  0.2400E+00
    -13.803  0.0000E+00  0.2400E+00
    -13.699  0.0000E+00  0.2400E+00
    -13.595  0.0000E+00  0.2400E+00
    -13.490  0.0000E+00  0.2400E+00
    -13.386  0.0000E+00  0.2400E+00
    -13.282  0.0000E+00  0.2400E+00
    -13.178  0.0000E+00  0.2400E+00
    -13.073  0.0000E+00  0.2400E+00
    -12.969  0.0000E+00  0.2400E+00
    -12.865  0.0000E+00  0.2400E+00
    -12.761  0.0000E+00  0.2400E+00
    -12.656  0.0000E+00  0.2400E+00
    -12.552  0.0000E+00  0.2400E+00
    -12.448  0.0000E+00  0.2400E+00
    -12.343  0.0000E+00  0.2400E+00
    -12.239  0.0000E+00  0.2400E+00
    -12.135  0.0000E+00  0.2400E+00
    -12.031  0.0000E+00  0.2400E+00
    -11.926  0.0000E+00  0.2400E+00
    -11.822  0.0000E+00  0.2400E+00
    -11.718  0.0000E+00  0.2400E+00
    -11.614  0.0000E+00  0.2400E+00
    -11.509  0.0000E+00  0.2400E+00
    -11.405  0.0000E+00  0.2400E+00
    -11.301  0.0000E+00  0.2400E+00
    -11.197  0.0000E+00  0.2400E+00
    -11.092  0.0000E+00  0.2400E+00
    -10.988  0.0000E+00  0.2400E+00
    -10.884  0.0000E+00  0.2400E+00
    -10.779  0.0000E+00  0.2400E+00
    -10.675  0.0000E+00  0.2400E+00
    -10.571  0.0000E+00  0.2400E+00
    -10.467  0.0000E+00  0.2400E+00
    -10.362  0.0000E+00  0.2400E+00
    -10.258  0.0000E+00  0.2400E+00
    -10.154  0.0000E+00  0.2400E+00
    -10.050  0.0000E+00  0.2400E+00
     -9.945  0.1358E-15  0.2400E+00
     -9.841  0.4648E-11  0.2400E+00
     -9.737  0.1921E-07  0.2400E+00
     -9.633  0.1006E-04  0.2400E+00
     -9.528  0.7442E-03  0.2401E+00
     -9.424  0.1031E-01  0.2412E+00
     -9.320  0.4428E-01  0.2458E+00
     -9.215  0.7843E-01  0.2539E+00
     -9.111  0.8677E-01  0.2630E+00
     -9.007  0.9470E-01  0.2729E+00
     -8.903  0.8421E-01  0.2817E+00
     -8.798  0.8338E-01  0.2903E+00
     -8.694  0.9259E-01  0.3000E+00
     -8.590  0.9486E-01  0.3099E+00
     -8.486  0.8242E-01  0.3185E+00
     -8.381  0.8393E-01  0.3272E+00
     -8.277  0.7609E-01  0.3352E+00
     -8.173  0.6714E-01  0.3422E+00
     -8.068  0.5376E-01  0.3478E+00
     -7.964  0.7078E-01  0.3552E+00
     -7.860  0.1052E+00  0.3661E+00
     -7.756  0.6236E-01  0.3726E+00
     -7.651  0.2365E-01  0.3751E+00
     -7.547  0.7598E-01  0.3830E+00
     -7.443  0.1203E+00  0.3956E+00
     -7.339  0.9754E-01  0.4057E+00
     -7.234  0.9055E-01  0.4152E+00
     -7.130  0.7811E-01  0.4233E+00
     -7.026  0.7683E-01  0.4313E+00
     -6.922  0.1085E+00  0.4426E+00
     -6.817  0.1069E+00  0.4538E+00
     -6.713  0.1151E+00  0.4658E+00
     -6.609  0.1200E+00  0.4783E+00
     -6.504  0.9219E-01  0.4879E+00
     -6.400  0.6930E-01  0.4951E+00
     -6.296  0.6259E-01  0.5017E+00
     -6.192  0.5837E-01  0.5077E+00
     -6.087  0.8810E-01  0.5169E+00
     -5.983  0.1316E+00  0.5307E+00
     -5.879  0.9673E-01  0.5407E+00
     -5.775  0.9942E-01  0.5511E+00
     -5.670  0.9597E-01  0.5611E+00
     -5.566  0.7563E-01  0.5690E+00
     -5.462  0.1476E+00  0.5844E+00
     -5.358  0.1839E+00  0.6036E+00
     -5.253  0.1561E+00  0.6198E+00
     -5.149  0.1465E+00  0.6351E+00
     -5.045  0.1248E+00  0.6481E+00
     -4.940  0.1025E+00  0.6588E+00
     -4.836  0.1157E+00  0.6709E+00
     -4.732  0.1655E+00  0.6881E+00
     -4.628  0.2079E+00  0.7098E+00
     -4.523  0.1886E+00  0.7295E+00
     -4.419  0.1630E+00  0.7465E+00
     -4.315  0.1671E+00  0.7639E+00
     -4.211  0.1928E+00  0.7840E+00
     -4.106  0.1973E+00  0.8045E+00
     -4.002  0.1863E+00  0.8240E+00
     -3.898  0.1165E+00  0.8361E+00
     -3.794  0.7357E-01  0.8438E+00
     -3.689  0.8908E-01  0.8531E+00
     -3.585  0.1427E+00  0.8680E+00
     -3.481  0.1294E+00  0.8814E+00
     -3.376  0.8156E-01  0.8899E+00
     -3.272  0.9835E-01  0.9002E+00
     -3.168  0.1020E+00  0.9108E+00
     -3.064  0.1148E+00  0.9228E+00
     -2.959  0.6391E-01  0.9295E+00
     -2.855  0.7447E-01  0.9372E+00
     -2.751  0.1057E+00  0.9482E+00
     -2.647  0.7067E-01  0.9556E+00
     -2.542  0.3447E-01  0.9592E+00
     -2.438  0.7254E-02  0.9600E+00
     -2.334  0.3485E-03  0.9600E+00
     -2.230  0.2817E-05  0.9600E+00
     -2.125  0.3256E-08  0.9600E+00
     -2.021  0.1231E-08  0.9600E+00
     -1.917  0.9628E-06  0.9600E+00
     -1.812  0.9770E-04  0.9600E+00
     -1.708  0.1541E-02  0.9602E+00
     -1.604  0.6775E-02  0.9609E+00
     -1.500  0.1571E-01  0.9625E+00
     -1.395  0.1813E-01  0.9644E+00
     -1.291  0.1449E-01  0.9659E+00
     -1.187  0.2401E-01  0.9684E+00
     -1.083  0.2477E-01  0.9710E+00
     -0.978  0.1615E-01  0.9727E+00
     -0.874  0.2644E-01  0.9754E+00
     -0.770  0.2822E-01  0.9784E+00
     -0.666  0.3552E-01  0.9821E+00
     -0.561  0.2639E-01  0.9848E+00
     -0.457  0.7620E-02  0.9856E+00
     -0.353  0.5504E-02  0.9862E+00
     -0.248  0.4285E-02  0.9867E+00
     -0.144  0.4006E-02  0.9871E+00
     -0.040  0.5559E-02  0.9877E+00
      0.064  0.5174E-02  0.9882E+00
      0.169  0.2027E-01  0.9903E+00
      0.273  0.3118E-01  0.9936E+00
      0.377  0.2001E-01  0.9956E+00
      0.481  0.1429E-01  0.9971E+00
      0.586  0.2349E-01  0.9996E+00
      0.690  0.1696E-01  0.1001E+01
      0.794  0.3063E-02  0.1002E+01
      0.898  0.3018E-02  0.1002E+01
      1.003  0.1124E-01  0.1003E+01
      1.107  0.1206E-01  0.1004E+01
      1.211  0.1763E-01  0.1006E+01
      1.316  0.9566E-02  0.1007E+01
      1.420  0.5604E-02  0.1008E+01
      1.524  0.4217E-02  0.1008E+01
      1.628  0.9162E-03  0.1008E+01
      1.733  0.3547E-02  0.1009E+01
      1.837  0.1413E-01  0.1010E+01
      1.941  0.2333E-01  0.1013E+01
      2.045  0.2226E-01  0.1015E+01
      2.150  0.2361E-01  0.1017E+01
      2.254  0.3841E-01  0.1021E+01
      2.358  0.5210E-01  0.1027E+01
      2.463  0.5392E-01  0.1032E+01
      2.567  0.3921E-01  0.1037E+01
      2.671  0.6445E-01  0.1043E+01
      2.775  0.8783E-01  0.1052E+01
      2.880  0.5518E-01  0.1058E+01
      2.984  0.1799E-01  0.1060E+01
      3.088  0.1087E-01  0.1061E+01
      3.192  0.1334E-01  0.1063E+01
      3.297  0.1544E-01  0.1064E+01
      3.401  0.1292E-01  0.1066E+01
      3.505  0.8319E-02  0.1066E+01
      3.609  0.7273E-02  0.1067E+01
      3.714  0.9305E-02  0.1068E+01
      3.818  0.1249E-01  0.1069E+01
      3.922  0.1262E-01  0.1071E+01
      4.027  0.1141E-01  0.1072E+01
      4.131  0.4823E-02  0.1072E+01
      4.235  0.8709E-02  0.1073E+01
      4.339  0.2440E-01  0.1076E+01
      4.444  0.4891E-01  0.1081E+01
      4.548  0.4131E-01  0.1085E+01
      4.652  0.3735E-01  0.1089E+01
      4.756  0.4323E-01  0.1094E+01
      4.861  0.4801E-01  0.1099E+01
      4.965  0.5914E-01  0.1105E+01
      5.069  0.8498E-01  0.1114E+01
      5.173  0.1059E+00  0.1125E+01
      5.278  0.9002E-01  0.1134E+01
      5.382  0.7925E-01  0.1142E+01
      5.486  0.9526E-01  0.1152E+01
      5.591  0.1060E+00  0.1163E+01
      5.695  0.6404E-01  0.1170E+01
      5.799  0.7017E-01  0.1177E+01
      5.903  0.8120E-01  0.1186E+01
      6.008  0.6855E-01  0.1193E+01
      6.112  0.5816E-01  0.1199E+01
      6.216  0.7520E-01  0.1207E+01
      6.320  0.7845E-01  0.1215E+01
      6.425  0.3658E-01  0.1219E+01
      6.529  0.8869E-02  0.1220E+01
      6.633  0.1232E-02  0.1220E+01
      6.737  0.4587E-04  0.1220E+01
      6.842  0.2761E-06  0.1220E+01
      6.946  0.2205E-09  0.1220E+01
      7.050  0.2163E-13  0.1220E+01
      7.155  0.0000E+00  0.1220E+01
      7.259  0.0000E+00  0.1220E+01
      7.363  0.0000E+00  0.1220E+01
      7.467  0.0000E+00  0.1220E+01
      7.572  0.0000E+00  0.1220E+01
      7.676  0.0000E+00  0.1220E+01
      7.780  0.0000E+00  0.1220E+01
      7.884  0.0000E+00  0.1220E+01
