       N       E                     dE             d eps       ncg     rms          rms(c)
DAV:   1     0.288569253210E+04    0.28857E+04   -0.13026E+05  2610   0.137E+03
DAV:   2     0.262838801201E+02   -0.28594E+04   -0.27424E+04  3493   0.333E+02
DAV:   3    -0.486698675430E+03   -0.51298E+03   -0.51003E+03  2988   0.148E+02
DAV:   4    -0.502372733862E+03   -0.15674E+02   -0.15627E+02  2956   0.303E+01
DAV:   5    -0.502809451953E+03   -0.43672E+00   -0.43626E+00  3116   0.454E+00    0.453E+01
RMM:   6    -0.438717963693E+03    0.64091E+02   -0.25875E+02  2606   0.333E+01    0.137E+01
RMM:   7    -0.438135961076E+03    0.58200E+00   -0.25091E+01  2626   0.901E+00    0.939E+00
RMM:   8    -0.436536176595E+03    0.15998E+01   -0.48771E+00  2619   0.498E+00    0.186E+00
RMM:   9    -0.436371668396E+03    0.16451E+00   -0.15452E+00  2861   0.207E+00    0.129E+00
RMM:  10    -0.436256550586E+03    0.11512E+00   -0.26950E-01  2803   0.953E-01    0.871E-01
RMM:  11    -0.436095858627E+03    0.16069E+00   -0.12651E-01  2621   0.672E-01    0.534E-01
RMM:  12    -0.436021490436E+03    0.74368E-01   -0.62021E-02  2617   0.460E-01    0.367E-01
RMM:  13    -0.435899781921E+03    0.12171E+00   -0.80933E-02  2791   0.370E-01    0.424E-01
RMM:  14    -0.435824841770E+03    0.74940E-01   -0.76483E-02  2771   0.470E-01    0.331E-01
RMM:  15    -0.435759606532E+03    0.65235E-01   -0.30443E-02  2699   0.269E-01    0.240E-01
RMM:  16    -0.435763653751E+03   -0.40472E-02   -0.38583E-02  2787   0.246E-01    0.395E-01
RMM:  17    -0.435777600160E+03   -0.13946E-01   -0.15680E-02  2701   0.189E-01    0.218E-01
RMM:  18    -0.435796922109E+03   -0.19322E-01   -0.16398E-02  2758   0.186E-01    0.126E-01
RMM:  19    -0.435807976502E+03   -0.11054E-01   -0.55091E-03  2492   0.786E-02    0.671E-02
RMM:  20    -0.435813220879E+03   -0.52444E-02   -0.45203E-03  2590   0.102E-01    0.107E-01
RMM:  21    -0.435815997338E+03   -0.27765E-02   -0.32853E-03  2575   0.888E-02    0.512E-02
RMM:  22    -0.435816685628E+03   -0.68829E-03   -0.75921E-04  1854   0.357E-02    0.263E-02
RMM:  23    -0.435817494089E+03   -0.80846E-03   -0.62724E-04  1816   0.311E-02    0.307E-02
RMM:  24    -0.435817712628E+03   -0.21854E-03   -0.28059E-04  1619   0.303E-02    0.164E-02
RMM:  25    -0.435817908404E+03   -0.19578E-03   -0.60698E-05  1460   0.123E-02    0.678E-03
RMM:  26    -0.435817962678E+03   -0.54274E-04   -0.17884E-05   851   0.613E-03
   1 F= -.43581796E+03 E0= -.43578288E+03  d E =-.435818E+03
       N       E                     dE             d eps       ncg     rms          rms(c)
DAV:   1    -0.441364062447E+03   -0.55462E+01   -0.31919E+01  2828   0.113E+01    0.255E+00
RMM:   2    -0.441278341062E+03    0.85721E-01   -0.11560E+00  2563   0.232E+00    0.148E+00
RMM:   3    -0.441090280060E+03    0.18806E+00   -0.41043E-01  2598   0.117E+00    0.637E-01
RMM:   4    -0.441020224789E+03    0.70055E-01   -0.15668E-01  2737   0.582E-01    0.406E-01
RMM:   5    -0.441033028798E+03   -0.12804E-01   -0.17264E-01  2627   0.600E-01    0.106E+00
RMM:   6    -0.440991919802E+03    0.41109E-01   -0.23874E-02  2576   0.303E-01    0.289E-01
RMM:   7    -0.440995959319E+03   -0.40395E-02   -0.35953E-02  2572   0.380E-01    0.283E-01
RMM:   8    -0.440992225363E+03    0.37340E-02   -0.53074E-03  2573   0.144E-01    0.112E-01
RMM:   9    -0.440993431364E+03   -0.12060E-02   -0.61212E-03  2481   0.139E-01    0.130E-01
RMM:  10    -0.440994159708E+03   -0.72834E-03   -0.28443E-03  2465   0.761E-02    0.613E-02
RMM:  11    -0.440994473866E+03   -0.31416E-03   -0.17206E-03  2284   0.520E-02    0.679E-02
RMM:  12    -0.440993903506E+03    0.57036E-03   -0.12070E-03  1849   0.341E-02    0.216E-02
RMM:  13    -0.440993529799E+03    0.37371E-03   -0.36838E-04  1643   0.237E-02    0.231E-02
RMM:  14    -0.440993075937E+03    0.45386E-03   -0.16962E-04  1553   0.167E-02    0.239E-02
RMM:  15    -0.440992804982E+03    0.27095E-03   -0.38182E-05  1154   0.944E-03    0.163E-02
RMM:  16    -0.440992753479E+03    0.51504E-04   -0.64682E-05  1460   0.120E-02
   2 F= -.44099275E+03 E0= -.44096426E+03  d E =-.517479E+01
       N       E                     dE             d eps       ncg     rms          rms(c)
DAV:   1    -0.442678770439E+03   -0.16860E+01   -0.27552E+01  2725   0.114E+01    0.243E+00
RMM:   2    -0.442777366166E+03   -0.98596E-01   -0.66603E-01  2570   0.197E+00    0.128E+00
RMM:   3    -0.442826856776E+03   -0.49491E-01   -0.23702E-01  2598   0.987E-01    0.490E-01
RMM:   4    -0.442831697051E+03   -0.48403E-02   -0.68189E-02  2748   0.444E-01    0.299E-01
RMM:   5    -0.442831915649E+03   -0.21860E-03   -0.43235E-02  2624   0.387E-01    0.206E-01
RMM:   6    -0.442831802095E+03    0.11355E-03   -0.83161E-03  2802   0.153E-01    0.143E-01
RMM:   7    -0.442835055391E+03   -0.32533E-02   -0.25047E-02  2749   0.303E-01    0.290E-01
RMM:   8    -0.442832667992E+03    0.23874E-02   -0.98954E-03  2613   0.195E-01    0.553E-02
RMM:   9    -0.442833149970E+03   -0.48198E-03   -0.84499E-03  2650   0.162E-01    0.154E-01
RMM:  10    -0.442832069872E+03    0.10801E-02   -0.11162E-03  2235   0.613E-02    0.109E-01
RMM:  11    -0.442830117136E+03    0.19527E-02   -0.45128E-03  2765   0.115E-01    0.472E-02
RMM:  12    -0.442828896387E+03    0.12207E-02   -0.13370E-03  2464   0.733E-02    0.605E-02
RMM:  13    -0.442828602428E+03    0.29396E-03   -0.18952E-04  1629   0.258E-02    0.390E-02
RMM:  14    -0.442828444688E+03    0.15774E-03   -0.77973E-04  2267   0.488E-02    0.270E-02
RMM:  15    -0.442828643798E+03   -0.19911E-03   -0.72538E-05  1507   0.181E-02    0.119E-02
RMM:  16    -0.442828908559E+03   -0.26476E-03   -0.70437E-05  1476   0.157E-02    0.704E-03
RMM:  17    -0.442828953604E+03   -0.45045E-04   -0.13770E-05  1373   0.799E-03
   3 F= -.44282895E+03 E0= -.44281189E+03  d E =-.701099E+01
       N       E                     dE             d eps       ncg     rms          rms(c)
DAV:   1    -0.442884379640E+03   -0.55471E-01   -0.11688E+00  2804   0.252E+00    0.449E-01
RMM:   2    -0.442885950391E+03   -0.15708E-02   -0.24046E-02  2579   0.381E-01    0.258E-01
RMM:   3    -0.442886068980E+03   -0.11859E-03   -0.10276E-02  2596   0.192E-01    0.106E-01
RMM:   4    -0.442886110569E+03   -0.41589E-04   -0.34927E-03  2506   0.951E-02    0.507E-02
RMM:   5    -0.442886430621E+03   -0.32005E-03   -0.13577E-03  2408   0.667E-02    0.332E-02
RMM:   6    -0.442886901557E+03   -0.47094E-03   -0.10277E-03  2133   0.440E-02    0.274E-02
RMM:   7    -0.442887480574E+03   -0.57902E-03   -0.13564E-03  2380   0.486E-02    0.231E-02
RMM:   8    -0.442887547480E+03   -0.66907E-04   -0.82049E-04  2248   0.433E-02
   4 F= -.44288755E+03 E0= -.44287049E+03  d E =-.706958E+01
       N       E                     dE             d eps       ncg     rms          rms(c)
DAV:   1    -0.442888410861E+03   -0.93029E-03   -0.33153E-02  2812   0.422E-01    0.757E-02
RMM:   2    -0.442888521737E+03   -0.11088E-03   -0.81378E-04  2177   0.676E-02    0.442E-02
RMM:   3    -0.442888496923E+03    0.24814E-04   -0.22532E-04  1662   0.283E-02
   5 F= -.44288850E+03 E0= -.44287144E+03  d E =-.707053E+01
