 vasp.6.3.2 27Jun22 (build Mar 15 2023 15:45:48) complex                        
  
 executed on             LinuxIFC date 2024.07.24  09:11:51
 running on    4 total cores
 distrk:  each k-point on    1 cores,    4 groups
 distr:  one band on NCORE=   1 cores,    1 groups


--------------------------------------------------------------------------------------------------------


 INCAR:
   SYSTEM = ni3al
   PREC = Accurate
   EDIFF = 1E-4
   EDIFFG = -2E-2
   ISTART = 0
   NCORE = 4
   ICHARG = 2
   LREAL = Auto
   NSW = 300
   ISIF = 2
   IBRION = 2
   ISMEAR = 0
   SIGMA = 0.1
   ENCUT = 530
   ALGO = Fast
   LMAXMIX = 4
   AMIN = 0.01
   NELM = 150
   LCHARG = .FALSE.
   LWAVE = .FALSE.
   KPAR = 8

 POTCAR:    PAW_PBE O 08Apr2002                   
 POTCAR:    PAW_PBE Al 04Jan2001                  
 POTCAR:    PAW_PBE O 08Apr2002                   
   VRHFIN =O: s2p4                                                                                  
   LEXCH  = PE                                                                                      
   EATOM  =   432.3788 eV,   31.7789 Ry                                                             
                                                                                                    
   TITEL  = PAW_PBE O 08Apr2002                                                                     
   LULTRA =        F    use ultrasoft PP ?                                                          
   IUNSCR =        1    unscreen: 0-lin 1-nonlin 2-no                                               
   RPACOR =    1.200    partial core radius                                                         
   POMASS =   16.000; ZVAL   =    6.000    mass and valenz                                          
   RCORE  =    1.520    outmost cutoff radius                                                       
   RWIGS  =    1.550; RWIGS  =    0.820    wigner-seitz radius (au A)                               
   ENMAX  =  400.000; ENMIN  =  300.000 eV                                                          
   ICORE  =        2    local potential                                                             
   LCOR   =        T    correct aug charges                                                         
   LPAW   =        T    paw PP                                                                      
   EAUG   =  605.392                                                                                
   DEXC   =    0.000                                                                                
   RMAX   =    1.553    core radius for proj-oper                                                   
   RAUG   =    1.300    factor for augmentation sphere                                              
   RDEP   =    1.550    radius for radial grids                                                     
   RDEPT  =    1.329    core radius for aug-charge                                                  
                                                                                                    
   Atomic configuration                                                                             
    4 entries                                                                                       
     n  l   j            E        occ.                                                              
     1  0  0.50      -514.6923   2.0000                                                             
     2  0  0.50       -23.9615   2.0000                                                             
     2  1  0.50        -9.0305   4.0000                                                             
     3  2  1.50        -9.5241   0.0000                                                             
   Description                                                                                      
     l       E           TYP  RCUT    TYP  RCUT                                                     
     0    -23.9615318     23  1.200                                                                 
     0     -9.5240782     23  1.200                                                                 
     1     -9.0304911     23  1.520                                                                 
     1      8.1634956     23  1.520                                                                 
     2     -9.5240782      7  1.500                                                                 
  local pseudopotential read in
  partial core-charges read in
  partial kinetic energy density read in
  kinetic energy density of atom read in
  atomic valenz-charges read in
  non local Contribution for L=           0  read in
    real space projection operators read in
  non local Contribution for L=           0  read in
    real space projection operators read in
  non local Contribution for L=           1  read in
    real space projection operators read in
  non local Contribution for L=           1  read in
    real space projection operators read in
    PAW grid and wavefunctions read in
 
   number of l-projection  operators is LMAX  =           4
   number of lm-projection operators is LMMAX =           8
 
 POTCAR:    PAW_PBE Al 04Jan2001                  
   VRHFIN =Al: s2p1                                                                                 
   LEXCH  = PE                                                                                      
   EATOM  =    53.5387 eV,    3.9350 Ry                                                             
                                                                                                    
   TITEL  = PAW_PBE Al 04Jan2001                                                                    
   LULTRA =        F    use ultrasoft PP ?                                                          
   IUNSCR =        1    unscreen: 0-lin 1-nonlin 2-no                                               
   RPACOR =    1.500    partial core radius                                                         
   POMASS =   26.981; ZVAL   =    3.000    mass and valenz                                          
   RCORE  =    1.900    outmost cutoff radius                                                       
   RWIGS  =    2.650; RWIGS  =    1.402    wigner-seitz radius (au A)                               
   ENMAX  =  240.300; ENMIN  =  180.225 eV                                                          
   ICORE  =        2    local potential                                                             
   LCOR   =        T    correct aug charges                                                         
   LPAW   =        T    paw PP                                                                      
   EAUG   =  291.052                                                                                
   DEXC   =    0.000                                                                                
   RMAX   =    1.939    core radius for proj-oper                                                   
   RAUG   =    1.300    factor for augmentation sphere                                              
   RDEP   =    1.966    radius for radial grids                                                     
   RDEPT  =    1.856    core radius for aug-charge                                                  
                                                                                                    
   Atomic configuration                                                                             
    6 entries                                                                                       
     n  l   j            E        occ.                                                              
     1  0  0.50     -1511.1048   2.0000                                                             
     2  0  0.50      -108.1629   2.0000                                                             
     2  1  1.50       -69.6402   6.0000                                                             
     3  0  0.50        -7.7528   2.0000                                                             
     3  1  1.50        -2.7121   1.0000                                                             
     3  2  2.50        -2.7212   0.0000                                                             
   Description                                                                                      
     l       E           TYP  RCUT    TYP  RCUT                                                     
     0     -7.7528455     23  1.900                                                                 
     0     -3.3096929     23  1.900                                                                 
     1     -2.7120682     23  1.900                                                                 
     1     13.6058260     23  1.900                                                                 
     2     -2.7211652      7  1.900                                                                 
  local pseudopotential read in
  partial core-charges read in
  partial kinetic energy density read in
  atomic valenz-charges read in
  non local Contribution for L=           0  read in
    real space projection operators read in
  non local Contribution for L=           0  read in
    real space projection operators read in
  non local Contribution for L=           1  read in
    real space projection operators read in
  non local Contribution for L=           1  read in
    real space projection operators read in
    PAW grid and wavefunctions read in
 
   number of l-projection  operators is LMAX  =           4
   number of lm-projection operators is LMMAX =           8
 
 Optimization of the real space projectors (new method)

 maximal supplied QI-value         = 24.76
 optimisation between [QCUT,QGAM] = [ 11.64, 23.52] = [ 37.91,154.88] Ry 
 Optimized for a Real-space Cutoff    1.16 Angstroem

   l    n(q)    QCUT    max X(q) W(low)/X(q) W(high)/X(q)  e(spline) 
   0      8    11.635    20.381    0.63E-04    0.20E-03    0.27E-06
   0      8    11.635    15.268    0.67E-04    0.21E-03    0.29E-06
   1      8    11.635     5.964    0.19E-03    0.13E-03    0.31E-06
   1      8    11.635     5.382    0.18E-03    0.10E-03    0.27E-06
 Optimization of the real space projectors (new method)

 maximal supplied QI-value         = 19.84
 optimisation between [QCUT,QGAM] = [ 11.71, 23.41] = [ 38.38,153.51] Ry 
 Optimized for a Real-space Cutoff    1.20 Angstroem

   l    n(q)    QCUT    max X(q) W(low)/X(q) W(high)/X(q)  e(spline) 
   0      8    11.707   176.870    0.56E-04    0.14E-03    0.47E-07
   0      8    11.707   105.762    0.55E-04    0.13E-03    0.46E-07
   1      8    11.707    55.370    0.15E-03    0.19E-04    0.75E-07
   1      8    11.707    20.208    0.14E-03    0.15E-04    0.69E-07
  PAW_PBE O 08Apr2002                   :
 energy of atom  1       EATOM= -432.3788
 kinetic energy error for atom=    0.0203 (will be added to EATOM!!)
  PAW_PBE Al 04Jan2001                  :
 energy of atom  2       EATOM=  -53.5387
 kinetic energy error for atom=    0.0002 (will be added to EATOM!!)
 
 
 POSCAR: SCAR
  positions in direct lattice
  velocities in cartesian coordinates
  No initial velocities read in
 exchange correlation table for  LEXCH =        8
   RHO(1)=    0.500       N(1)  =     2000
   RHO(2)=  100.500       N(2)  =     4000

 VTST: version 4.2, (08/11/21)

 CHAIN: initializing optimizer
 
 OPT: Using VASP Conjugate-Gradient optimizer
 CHAIN: Read ICHAIN            0
 
 POSCAR: SCAR
  positions in direct lattice
  velocities in cartesian coordinates
  No initial velocities read in
 


--------------------------------------------------------------------------------------------------------


 ion  position               nearest neighbor table
   1  0.173  0.986  0.062-  41 1.87  44 1.87  40 1.99  50 1.99
   2  0.423  0.486  0.062-  42 1.87  57 1.87  53 1.99  63 1.99
   3  0.097  0.500  0.164-  37 1.87  39 1.87  48 1.99  42 1.99
   4  0.347  0.000  0.164-  38 1.87  40 1.87  61 1.99  55 1.99
   5  0.153  0.333  0.062-  44 1.87  42 1.87  39 1.99  49 1.99
   6  0.403  0.833  0.062-  57 1.87  55 1.87  40 1.99  50 1.99
   7  0.173  0.680  0.062-  42 1.87  43 1.87  40 1.99  50 1.99
   8  0.423  0.180  0.062-  44 1.87  55 1.87  53 1.99  63 1.99
   9  0.077  0.153  0.164-  38 1.87  39 1.87  47 1.99  41 1.99
  10  0.327  0.653  0.164-  51 1.87  40 1.87  48 1.99  42 1.99
  11  0.077  0.847  0.164-  37 1.87  40 1.87  47 1.99  41 1.99
  12  0.327  0.347  0.164-  38 1.87  53 1.87  48 1.99  42 1.99
  13  0.173  0.320  0.265-  48 1.87  45 1.87  38 1.99
  14  0.423  0.820  0.265-  61 1.87  46 1.87  51 1.99
  15  0.153  0.667  0.265-  46 1.87  48 1.87  37 1.99
  16  0.403  0.167  0.265-  59 1.87  61 1.87  38 1.99
  17  0.173  0.014  0.265-  47 1.87  46 1.87  38 1.99
  18  0.423  0.514  0.265-  48 1.87  59 1.87  51 1.99
  19  0.673  0.986  0.062-  55 1.87  58 1.87  54 1.99  64 1.99
  20  0.923  0.486  0.062-  56 1.87  43 1.87  39 1.99  49 1.99
  21  0.597  0.500  0.164-  51 1.87  53 1.87  62 1.99  56 1.99
  22  0.847  0.000  0.164-  52 1.87  54 1.87  47 1.99  41 1.99
  23  0.653  0.333  0.062-  58 1.87  56 1.87  53 1.99  63 1.99
  24  0.903  0.833  0.062-  43 1.87  41 1.87  54 1.99  64 1.99
  25  0.673  0.680  0.062-  56 1.87  57 1.87  54 1.99  64 1.99
  26  0.923  0.180  0.062-  41 1.87  58 1.87  39 1.99  49 1.99
  27  0.577  0.153  0.164-  52 1.87  53 1.87  61 1.99  55 1.99
  28  0.827  0.653  0.164-  37 1.87  54 1.87  62 1.99  56 1.99
  29  0.577  0.847  0.164-  51 1.87  54 1.87  61 1.99  55 1.99
  30  0.827  0.347  0.164-  52 1.87  39 1.87  62 1.99  56 1.99
  31  0.673  0.320  0.265-  62 1.87  59 1.87  52 1.99
  32  0.923  0.820  0.265-  47 1.87  60 1.87  37 1.99
  33  0.653  0.667  0.265-  60 1.87  62 1.87  51 1.99
  34  0.903  0.167  0.265-  45 1.87  47 1.87  52 1.99
  35  0.673  0.014  0.265-  61 1.87  60 1.87  52 1.99
  36  0.923  0.514  0.265-  62 1.87  45 1.87  37 1.99
  37  0.000  0.667  0.203-  11 1.87  28 1.87   3 1.87  15 1.99  36 1.99  32 1.99  47 2.82  48 2.82
                            62 2.82  54 3.25  40 3.25  39 3.25
  38  0.250  0.167  0.203-  12 1.87   9 1.87   4 1.87  17 1.99  13 1.99  16 1.99  48 2.82  47 2.82
                            61 2.82  53 3.25  39 3.25  40 3.25
  39  0.000  0.333  0.124-  30 1.87   9 1.87   3 1.87  20 1.99  26 1.99   5 1.99  49 2.68  41 2.82
                            42 2.82  56 2.82  52 3.25  38 3.25  37 3.25
  40  0.250  0.833  0.124-  11 1.87  10 1.87   4 1.87   1 1.99   7 1.99   6 1.99  50 2.68  42 2.82
                            41 2.82  55 2.82  51 3.25  37 3.25  38 3.25
  41  0.000  0.000  0.101-  26 1.87   1 1.87  24 1.87  22 1.99   9 1.99  11 1.99  47 2.68  39 2.82
                            40 2.82  54 2.82  43 3.25  44 3.25  58 3.25
  42  0.250  0.500  0.101-   7 1.87   2 1.87   5 1.87   3 1.99  10 1.99  12 1.99  48 2.68  40 2.82
                            39 2.82  53 2.82  44 3.25  43 3.25  57 3.25
  43  0.000  0.667  0.023-  24 1.87   7 1.87  20 1.87  50 2.82  64 2.82  49 2.82  41 3.25  56 3.25
                            42 3.25
  44  0.250  0.167  0.023-   5 1.87   8 1.87   1 1.87  49 2.82  63 2.82  50 2.82  42 3.25  55 3.25
                            41 3.25
  45  0.000  0.333  0.304-  34 1.87  13 1.87  36 1.87  47 3.25  48 3.25  62 3.25
  46  0.250  0.833  0.304-  14 1.87  15 1.87  17 1.87  48 3.25  47 3.25  61 3.25
  47  0.000  0.000  0.226-  32 1.87  17 1.87  34 1.87  22 1.99   9 1.99  11 1.99  41 2.68  37 2.82
                            38 2.82  52 2.82  45 3.25  46 3.25  60 3.25
  48  0.250  0.500  0.226-  13 1.87  18 1.87  15 1.87   3 1.99  10 1.99  12 1.99  42 2.68  38 2.82
                            37 2.82  51 2.82  46 3.25  45 3.25  59 3.25
  49  0.000  0.333  0.000-  20 1.99  26 1.99   5 1.99  39 2.68  44 2.82  58 2.82  43 2.82
  50  0.250  0.833  0.000-   1 1.99   7 1.99   6 1.99  40 2.68  43 2.82  57 2.82  44 2.82
  51  0.500  0.667  0.203-  29 1.87  10 1.87  21 1.87  33 1.99  18 1.99  14 1.99  61 2.82  48 2.82
                            62 2.82  40 3.25  54 3.25  53 3.25
  52  0.750  0.167  0.203-  30 1.87  27 1.87  22 1.87  35 1.99  31 1.99  34 1.99  62 2.82  61 2.82
                            47 2.82  39 3.25  53 3.25  54 3.25
  53  0.500  0.333  0.124-  12 1.87  27 1.87  21 1.87   2 1.99   8 1.99  23 1.99  63 2.68  55 2.82
                            56 2.82  42 2.82  52 3.25  38 3.25  51 3.25
  54  0.750  0.833  0.124-  29 1.87  28 1.87  22 1.87  19 1.99  25 1.99  24 1.99  64 2.68  56 2.82
                            41 2.82  55 2.82  51 3.25  37 3.25  52 3.25
  55  0.500  0.000  0.101-  19 1.87   6 1.87   8 1.87   4 1.99  27 1.99  29 1.99  61 2.68  53 2.82
                            54 2.82  40 2.82  57 3.25  58 3.25  44 3.25
  56  0.750  0.500  0.101-  25 1.87  20 1.87  23 1.87  21 1.99  28 1.99  30 1.99  62 2.68  54 2.82
                            39 2.82  53 2.82  58 3.25  43 3.25  57 3.25
  57  0.500  0.667  0.023-   6 1.87  25 1.87   2 1.87  50 2.82  64 2.82  63 2.82  55 3.25  42 3.25
                            56 3.25
  58  0.750  0.167  0.023-  23 1.87  26 1.87  19 1.87  49 2.82  63 2.82  64 2.82  56 3.25  55 3.25
                            41 3.25
  59  0.500  0.333  0.304-  16 1.87  31 1.87  18 1.87  61 3.25  48 3.25  62 3.25
  60  0.750  0.833  0.304-  32 1.87  33 1.87  35 1.87  62 3.25  61 3.25  47 3.25
  61  0.500  0.000  0.226-  14 1.87  35 1.87  16 1.87   4 1.99  27 1.99  29 1.99  55 2.68  51 2.82
                            52 2.82  38 2.82  59 3.25  46 3.25  60 3.25
  62  0.750  0.500  0.226-  31 1.87  36 1.87  33 1.87  21 1.99  28 1.99  30 1.99  56 2.68  52 2.82
                            37 2.82  51 2.82  60 3.25  59 3.25  45 3.25
  63  0.500  0.333  0.000-   2 1.99   8 1.99  23 1.99  53 2.68  44 2.82  58 2.82  57 2.82
  64  0.750  0.833  0.000-  19 1.99  25 1.99  24 1.99  54 2.68  43 2.82  57 2.82  58 2.82
 
  LATTYP: Found a simple orthorhombic cell.
 ALAT       =     8.3267490000
 B/A-ratio  =     1.1547005920
 C/A-ratio  =     2.5893163106
  
  Lattice vectors:
  
 A1 = (   0.0000000000,  -8.3267490000,   0.0000000000)
 A2 = (   9.6149020000,   0.0000000000,   0.0000000000)
 A3 = (   0.0000000000,   0.0000000000,  21.5605870000)


Analysis of symmetry for initial positions (statically):
=====================================================================
 Subroutine PRICEL returns following result:
 
  LATTYP: Found a hexagonal cell.
 ALAT       =     4.8074510000
 C/A-ratio  =     4.4848271984
  
  Lattice vectors:
  
 A1 = (  -4.8074510000,   0.0000000000,   0.0000000000)
 A2 = (   2.4037255000,  -4.1633745000,   0.0000000000)
 A3 = (   0.0000000000,   0.0000000000,  21.5605870000)
 
   4 primitive cells build up your supercell.
 

 Routine SETGRP: Setting up the symmetry group for a 
 simple orthorhombic supercell.


 Subroutine GETGRP returns: Found  1 space group operations
 (whereof  1 operations were pure point group operations)
 out of a pool of  8 trial point group operations.


The static configuration has the point symmetry C_1 .


Analysis of symmetry for dynamics (positions and initial velocities):
=====================================================================
 Subroutine PRICEL returns following result:
 
  LATTYP: Found a hexagonal cell.
 ALAT       =     4.8074510000
 C/A-ratio  =     4.4848271984
  
  Lattice vectors:
  
 A1 = (  -4.8074510000,   0.0000000000,   0.0000000000)
 A2 = (   2.4037255000,  -4.1633745000,   0.0000000000)
 A3 = (   0.0000000000,   0.0000000000,  21.5605870000)
 
   4 primitive cells build up your supercell.
 

 Routine SETGRP: Setting up the symmetry group for a 
 simple orthorhombic supercell.


 Subroutine GETGRP returns: Found  1 space group operations
 (whereof  1 operations were pure point group operations)
 out of a pool of  8 trial point group operations.


The dynamic configuration has the point symmetry C_1 .


Analysis of constrained symmetry for selective dynamics:
=====================================================================
 Subroutine PRICEL returns following result:
 
  LATTYP: Found a hexagonal cell.
 ALAT       =     4.8074510000
 C/A-ratio  =     4.4848271984
  
  Lattice vectors:
  
 A1 = (  -4.8074510000,   0.0000000000,   0.0000000000)
 A2 = (   2.4037255000,  -4.1633745000,   0.0000000000)
 A3 = (   0.0000000000,   0.0000000000,  21.5605870000)
 
   4 primitive cells build up your supercell.
 

 Routine SETGRP: Setting up the symmetry group for a 
 simple orthorhombic supercell.


 Subroutine GETGRP returns: Found  1 space group operations
 (whereof  1 operations were pure point group operations)
 out of a pool of  8 trial point group operations.


The constrained configuration has the point symmetry C_1 .


 Subroutine INISYM returns: Found  1 space group operations
 (whereof  1 operations are pure point group operations),
 and found     4 'primitive' translations


----------------------------------------------------------------------------------------

                                     Primitive cell                                     

  volume of cell :     431.5399

  direct lattice vectors                    reciprocal lattice vectors
    -4.807451000  0.000000000  0.000000000    -0.208010440 -0.120094889  0.000000000
     2.403725500 -4.163374500  0.000000000     0.000000000 -0.240189779  0.000000000
     0.000000000  0.000000000 21.560587000     0.000000000  0.000000000  0.046380926

  length of vectors
     4.807451000  4.807450832 21.560587000     0.240189770  0.240189779  0.046380926

  position of ions in fractional coordinates (direct lattice)
     0.666668000  0.027160000  0.062152000
     0.306174000  0.000000000  0.163581000
     0.360491000  0.333334000  0.062152000
     0.972843000  0.639510000  0.062152000
     0.693825000  0.693826000  0.163581000
     1.000000000  0.306176000  0.163581000
     0.333333000  0.360490000  0.265009000
     0.027157000  0.666666000  0.265009000
     0.639508000  0.972840000  0.265009000
     0.333333000  0.666666000  0.202858000
     0.666667000  0.333334000  0.124303000
     0.000000000  0.000000000  0.101429000
     0.333333000  0.666666000  0.022875000
     0.666667000  0.333334000  0.304286000
     0.000000000  0.000000000  0.225732000
     0.666667000  0.333334000  0.000000000

  ion indices of the primitive-cell ions
   primitive index   ion index
                 1           1
                 2           4
                 3           6
                 4           7
                 5           9
                 6          11
                 7          14
                 8          16
                 9          17
                10          38
                11          40
                12          41
                13          44
                14          46
                15          47
                16          50

----------------------------------------------------------------------------------------

 
 
 KPOINTS: K-Spacing Value to Generate K-Mesh: 0.03

Automatic generation of k-mesh.
 Grid dimensions read from file:
 generate k-points for:    3    4    1

 Generating k-lattice:

  Cartesian coordinates                     Fractional coordinates (reciprocal lattice)
     0.034668407  0.000000000  0.000000000     0.333333333  0.000000000  0.000000000
     0.000000000  0.030023722  0.000000000     0.000000000  0.250000000  0.000000000
     0.000000000  0.000000000  0.046380926     0.000000000  0.000000000  1.000000000

  Length of vectors
     0.034668407  0.030023722  0.046380926

  Shift w.r.t. Gamma in fractional coordinates (k-lattice)
     0.000000000  0.000000000  0.000000000

 
 Subroutine IBZKPT returns following result:
 ===========================================
 
 Found      7 irreducible k-points:
 
 Following reciprocal coordinates:
            Coordinates               Weight
  0.000000  0.000000  0.000000      1.000000
  0.333333  0.000000  0.000000      2.000000
  0.000000  0.250000  0.000000      2.000000
  0.333333  0.250000  0.000000      2.000000
 -0.333333  0.250000  0.000000      2.000000
  0.000000  0.500000  0.000000      1.000000
  0.333333  0.500000  0.000000      2.000000
 
 Following cartesian coordinates:
            Coordinates               Weight
  0.000000  0.000000  0.000000      1.000000
  0.034668  0.000000  0.000000      2.000000
  0.000000  0.030024  0.000000      2.000000
  0.034668  0.030024  0.000000      2.000000
 -0.034668  0.030024  0.000000      2.000000
  0.000000  0.060047  0.000000      1.000000
  0.034668  0.060047  0.000000      2.000000
 


--------------------------------------------------------------------------------------------------------




 Dimension of arrays:
   k-points           NKPTS =      7   k-points in BZ     NKDIM =      7   number of bands    NBANDS=    183
   number of dos      NEDOS =    301   number of ions     NIONS =     64
   non local maximal  LDIM  =      4   non local SUM 2l+1 LMDIM =      8
   total plane-waves  NPLWV = 746496
   max r-space proj   IRMAX =   3175   max aug-charges    IRDMAX=  17029
   dimension x,y,z NGX =    72 NGY =   64 NGZ =  162
   dimension x,y,z NGXF=   144 NGYF=  128 NGZF=  324
   support grid    NGXF=   144 NGYF=  128 NGZF=  324
   ions per type =              36  28
   NGX,Y,Z   is equivalent  to a cutoff of  12.45, 12.78, 12.49 a.u.
   NGXF,Y,Z  is equivalent  to a cutoff of  24.90, 25.56, 24.98 a.u.

 SYSTEM =  ni3al                                   
 POSCAR =  SCAR                                    

 Startparameter for this run:
   NWRITE =      2    write-flag & timer
   PREC   = accura    normal or accurate (medium, high low for compatibility)
   ISTART =      0    job   : 0-new  1-cont  2-samecut
   ICHARG =      2    charge: 1-file 2-atom 10-const
   ISPIN  =      1    spin polarized calculation?
   LNONCOLLINEAR =      F non collinear calculations
   LSORBIT =      F    spin-orbit coupling
   INIWAV =      1    electr: 0-lowe 1-rand  2-diag
   LASPH  =      F    aspherical Exc in radial PAW
 Electronic Relaxation 1
   ENCUT  =  530.0 eV  38.95 Ry    6.24 a.u.  18.05 15.63 40.47*2*pi/ulx,y,z
   ENINI  =  530.0     initial cutoff
   ENAUG  =  605.4 eV  augmentation charge cutoff
   NELM   =    150;   NELMIN=  2; NELMDL= -5     # of ELM steps 
   EDIFF  = 0.1E-03   stopping-criterion for ELM
   LREAL  =      T    real-space projection
   NLSPLINE    = F    spline interpolate recip. space projectors
   LCOMPAT=      F    compatible to vasp.4.4
   GGA_COMPAT  = T    GGA compatible to vasp.4.4-vasp.4.6
   LMAXPAW     = -100 max onsite density
   LMAXMIX     =    4 max onsite mixed and CHGCAR
   VOSKOWN=      0    Vosko Wilk Nusair interpolation
   ROPT   =   -0.00025  -0.00025
 Ionic relaxation
   EDIFFG = -.2E-01   stopping-criterion for IOM
   NSW    =    300    number of steps for IOM
   NBLOCK =      1;   KBLOCK =    300    inner block; outer block 
   IBRION =      2    ionic relax: 0-MD 1-quasi-New 2-CG
   NFREE  =      1    steps in history (QN), initial steepest desc. (CG)
   ISIF   =      2    stress and relaxation
   IWAVPR =     11    prediction:  0-non 1-charg 2-wave 3-comb
   ISYM   =      2    0-nonsym 1-usesym 2-fastsym
   LCORR  =      T    Harris-Foulkes like correction to forces

   POTIM  = 0.5000    time-step for ionic-motion
   TEIN   =    0.0    initial temperature
   TEBEG  =    0.0;   TEEND  =   0.0 temperature during run
   SMASS  =  -3.00    Nose mass-parameter (am)
   estimated Nose-frequenzy (Omega)   =  0.10E-29 period in steps = 0.13E+47 mass=  -0.211E-26a.u.
   SCALEE = 1.0000    scale energy and forces
   NPACO  =    256;   APACO  = 10.0  distance and # of slots for P.C.
   PSTRESS=    0.0 pullay stress

  Mass of Ions in am
   POMASS =  16.00 26.98
  Ionic Valenz
   ZVAL   =   6.00  3.00
  Atomic Wigner-Seitz radii
   RWIGS  =  -1.00 -1.00
  virtual crystal weights 
   VCA    =   1.00  1.00
   NELECT =     300.0000    total number of electrons
   NUPDOWN=      -1.0000    fix difference up-down

 DOS related values:
   EMIN   =  10.00;   EMAX   =-10.00  energy-range for DOS
   EFERMI =   0.00
   ISMEAR =     0;   SIGMA  =   0.10  broadening in eV -4-tet -1-fermi 0-gaus

 Electronic relaxation 2 (details)
   IALGO  =     68    algorithm
   LDIAG  =      T    sub-space diagonalisation (order eigenvalues)
   LSUBROT=      F    optimize rotation matrix (better conditioning)
   TURBO    =      0    0=normal 1=particle mesh
   IRESTART =      0    0=no restart 2=restart with 2 vectors
   NREBOOT  =      0    no. of reboots
   NMIN     =      0    reboot dimension
   EREF     =   0.00    reference energy to select bands
   IMIX   =      4    mixing-type and parameters
     AMIX     =   0.40;   BMIX     =  1.00
     AMIX_MAG =   1.60;   BMIX_MAG =  1.00
     AMIN     =   0.01
     WC   =   100.;   INIMIX=   1;  MIXPRE=   1;  MAXMIX= -45

 Intra band minimization:
   WEIMIN = 0.0010     energy-eigenvalue tresh-hold
   EBREAK =  0.14E-06  absolut break condition
   DEPER  =   0.30     relativ break condition  

   TIME   =   0.40     timestep for ELM

  volume/ion in A,a.u.               =      26.97       182.01
  Fermi-wavevector in a.u.,A,eV,Ry     =   0.913598  1.726449 11.356246  0.834661
  Thomas-Fermi vector in A             =   2.038128
 
 Write flags
   LWAVE        =      F    write WAVECAR
   LDOWNSAMPLE  =      F    k-point downsampling of WAVECAR
   LCHARG       =      F    write CHGCAR
   LVTOT        =      F    write LOCPOT, total local potential
   LVHAR        =      F    write LOCPOT, Hartree potential only
   LELF         =      F    write electronic localiz. function (ELF)
   LORBIT       =      0    0 simple, 1 ext, 2 COOP (PROOUT), +10 PAW based schemes


 Dipole corrections
   LMONO  =      F    monopole corrections only (constant potential shift)
   LDIPOL =      F    correct potential (dipole corrections)
   IDIPOL =      0    1-x, 2-y, 3-z, 4-all directions 
   EPSILON=  1.0000000 bulk dielectric constant

 Exchange correlation treatment:
   GGA     =    --    GGA type
   LEXCH   =     8    internal setting for exchange type
   LIBXC   =     F    Libxc                    
   VOSKOWN =     0    Vosko Wilk Nusair interpolation
   LHFCALC =     F    Hartree Fock is set to
   LHFONE  =     F    Hartree Fock one center treatment
   AEXX    =    0.0000 exact exchange contribution

 Linear response parameters
   LEPSILON=     F    determine dielectric tensor
   LRPA    =     F    only Hartree local field effects (RPA)
   LNABLA  =     F    use nabla operator in PAW spheres
   LVEL    =     F    velocity operator in full k-point grid
   CSHIFT  =0.1000    complex shift for real part using Kramers Kronig
   OMEGAMAX=  -1.0    maximum frequency
   DEG_THRESHOLD= 0.2000000E-02 threshold for treating states as degnerate
   RTIME   =   -0.100 relaxation time in fs
  (WPLASMAI=    0.000 imaginary part of plasma frequency in eV, 0.658/RTIME)
   DFIELD  = 0.0000000 0.0000000 0.0000000 field for delta impulse in time
 
  Optional k-point grid parameters
   LKPOINTS_OPT  =     F    use optional k-point grid
   KPOINTS_OPT_MODE=     1    mode for optional k-point grid
 
 Orbital magnetization related:
   ORBITALMAG=     F  switch on orbital magnetization
   LCHIMAG   =     F  perturbation theory with respect to B field
   DQ        =  0.001000  dq finite difference perturbation B field
   LLRAUG    =     F  two centre corrections for induced B field



--------------------------------------------------------------------------------------------------------


 conjugate gradient relaxation of ions
   using selective dynamics as specified on POSCAR
 charge density and potential will be updated during run
 non-spin polarized calculation
 RMM-DIIS sequential band-by-band and
  variant of blocked Davidson during initial phase
 perform sub-space diagonalisation
    before iterative eigenvector-optimisation
 modified Broyden-mixing scheme, WC =      100.0
 initial mixing is a Kerker type mixing with AMIX =  0.4000 and BMIX =      1.0000
 Hartree-type preconditioning will be used
 using additional bands           33
 real space projection scheme for non local part
 use partial core corrections
 calculate Harris-corrections to forces 
   (improved forces if not selfconsistent)
 use gradient corrections 
 use of overlap-Matrix (Vanderbilt PP)
 Gauss-broadening in eV      SIGMA  =   0.10


--------------------------------------------------------------------------------------------------------


  energy-cutoff  :      530.00
  volume of cell :     1726.16
      direct lattice vectors                 reciprocal lattice vectors
     9.614902000  0.000000000  0.000000000     0.104005220  0.000000000  0.000000000
     0.000000000  8.326749000  0.000000000     0.000000000  0.120094889  0.000000000
     0.000000000  0.000000000 21.560587000     0.000000000  0.000000000  0.046380926

  length of vectors
     9.614902000  8.326749000 21.560587000     0.104005220  0.120094889  0.046380926


 
 k-points in units of 2pi/SCALE and weight: K-Spacing Value to Generate K-Mesh: 0.03
   0.00000000  0.00000000  0.00000000       0.083
   0.03466841  0.00000000  0.00000000       0.167
   0.00000000  0.03002372  0.00000000       0.167
   0.03466841  0.03002372  0.00000000       0.167
  -0.03466841  0.03002372  0.00000000       0.167
   0.00000000  0.06004744  0.00000000       0.083
   0.03466841  0.06004744  0.00000000       0.167
 
 k-points in reciprocal lattice and weights: K-Spacing Value to Generate K-Mesh: 0.03
   0.00000000  0.00000000  0.00000000       0.083
   0.33333333  0.00000000  0.00000000       0.167
   0.00000000  0.25000000  0.00000000       0.167
   0.33333333  0.25000000  0.00000000       0.167
  -0.33333333  0.25000000  0.00000000       0.167
   0.00000000  0.50000000  0.00000000       0.083
   0.33333333  0.50000000  0.00000000       0.167
 
 position of ions in fractional coordinates (direct lattice) 
   0.17345600  0.98642000  0.06215200
   0.42345600  0.48642000  0.06215200
   0.09691300  0.50000000  0.16358100
   0.34691300  0.00000000  0.16358100
   0.15308800  0.33333300  0.06215200
   0.40308800  0.83333300  0.06215200
   0.17345600  0.68024500  0.06215200
   0.42345600  0.18024600  0.06215200
   0.07654400  0.15308700  0.16358100
   0.32654400  0.65308700  0.16358100
   0.07654400  0.84691200  0.16358100
   0.32654400  0.34691200  0.16358100
   0.17345600  0.31975500  0.26500900
   0.42345600  0.81975500  0.26500900
   0.15308700  0.66666700  0.26500900
   0.40308800  0.16666700  0.26500900
   0.17345600  0.01358000  0.26500900
   0.42345600  0.51357900  0.26500900
   0.67345600  0.98642000  0.06215200
   0.92345600  0.48642000  0.06215200
   0.59691300  0.50000000  0.16358100
   0.84691300  0.00000000  0.16358100
   0.65308800  0.33333300  0.06215200
   0.90308800  0.83333300  0.06215200
   0.67345600  0.68024500  0.06215200
   0.92345600  0.18024500  0.06215200
   0.57654400  0.15308700  0.16358100
   0.82654400  0.65308700  0.16358100
   0.57654400  0.84691200  0.16358100
   0.82654400  0.34691200  0.16358100
   0.67345600  0.31975500  0.26500900
   0.92345600  0.81975500  0.26500900
   0.65308700  0.66666700  0.26500900
   0.90308800  0.16666700  0.26500900
   0.67345600  0.01357900  0.26500900
   0.92345600  0.51358000  0.26500900
   0.00000000  0.66666700  0.20285800
   0.25000000  0.16666700  0.20285800
   0.00000000  0.33333300  0.12430300
   0.25000000  0.83333300  0.12430300
   0.00000000  0.00000000  0.10142900
   0.25000000  0.50000000  0.10142900
   0.00000000  0.66666700  0.02287500
   0.25000000  0.16666700  0.02287500
   0.00000000  0.33333300  0.30428600
   0.25000000  0.83333300  0.30428600
   0.00000000  0.00000000  0.22573200
   0.25000000  0.50000000  0.22573200
   0.00000000  0.33333300  0.00000000
   0.25000000  0.83333300  0.00000000
   0.50000000  0.66666700  0.20285800
   0.75000000  0.16666700  0.20285800
   0.50000000  0.33333300  0.12430300
   0.75000000  0.83333300  0.12430300
   0.50000000  0.00000000  0.10142900
   0.75000000  0.50000000  0.10142900
   0.50000000  0.66666700  0.02287500
   0.75000000  0.16666700  0.02287500
   0.50000000  0.33333300  0.30428600
   0.75000000  0.83333300  0.30428600
   0.50000000  0.00000000  0.22573200
   0.75000000  0.50000000  0.22573200
   0.50000000  0.33333300  0.00000000
   0.75000000  0.83333300  0.00000000
 
 position of ions in cartesian coordinates  (Angst):
   1.66776244  8.21367175  1.34003360
   4.07148794  4.05029725  1.34003360
   0.93180900  4.16337450  3.52690238
   3.33553450  0.00000000  3.52690238
   1.47192612  2.77558022  1.34003360
   3.87565162  6.93895472  1.34003360
   1.66776244  5.66422937  1.34003360
   4.07148794  1.50086320  1.34003360
   0.73596306  1.27471702  3.52690238
   3.13968856  5.43809152  3.52690238
   0.73596306  7.05202365  3.52690238
   3.13968856  2.88864915  3.52690238
   1.66776244  2.66251963  5.71374960
   4.07148794  6.82589413  5.71374960
   1.47191650  5.55116878  5.71374960
   3.87565162  1.38779428  5.71374960
   1.66776244  0.11307725  5.71374960
   4.07148794  4.27644342  5.71374960
   6.47521344  8.21367175  1.34003360
   8.87893894  4.05029725  1.34003360
   5.73926000  4.16337450  3.52690238
   8.14298550  0.00000000  3.52690238
   6.27937712  2.77558022  1.34003360
   8.68310262  6.93895472  1.34003360
   6.47521344  5.66422937  1.34003360
   8.87893894  1.50085487  1.34003360
   5.54341406  1.27471702  3.52690238
   7.94713956  5.43809152  3.52690238
   5.54341406  7.05202365  3.52690238
   7.94713956  2.88864915  3.52690238
   6.47521344  2.66251963  5.71374960
   8.87893894  6.82589413  5.71374960
   6.27936750  5.55116878  5.71374960
   8.68310262  1.38779428  5.71374960
   6.47521344  0.11306892  5.71374960
   8.87893894  4.27645175  5.71374960
   0.00000000  5.55116878  4.37373756
   2.40372550  1.38779428  4.37373756
   0.00000000  2.77558022  2.68004565
   2.40372550  6.93895472  2.68004565
   0.00000000  0.00000000  2.18686878
   2.40372550  4.16337450  2.18686878
   0.00000000  5.55116878  0.49319843
   2.40372550  1.38779428  0.49319843
   0.00000000  2.77558022  6.56058478
   2.40372550  6.93895472  6.56058478
   0.00000000  0.00000000  4.86691442
   2.40372550  4.16337450  4.86691442
   0.00000000  2.77558022  0.00000000
   2.40372550  6.93895472  0.00000000
   4.80745100  5.55116878  4.37373756
   7.21117650  1.38779428  4.37373756
   4.80745100  2.77558022  2.68004565
   7.21117650  6.93895472  2.68004565
   4.80745100  0.00000000  2.18686878
   7.21117650  4.16337450  2.18686878
   4.80745100  5.55116878  0.49319843
   7.21117650  1.38779428  0.49319843
   4.80745100  2.77558022  6.56058478
   7.21117650  6.93895472  6.56058478
   4.80745100  0.00000000  4.86691442
   7.21117650  4.16337450  4.86691442
   4.80745100  2.77558022  0.00000000
   7.21117650  6.93895472  0.00000000
 


--------------------------------------------------------------------------------------------------------


 k-point   1 :   0.0000 0.0000 0.0000  plane waves:   47839
 k-point   2 :   0.3333 0.0000 0.0000  plane waves:   47902
 k-point   3 :   0.0000 0.2500 0.0000  plane waves:   47799
 k-point   4 :   0.3333 0.2500 0.0000  plane waves:   47841
 k-point   5 :  -0.3333 0.2500 0.0000  plane waves:   47841
 k-point   6 :   0.0000 0.5000 0.0000  plane waves:   47844
 k-point   7 :   0.3333 0.5000 0.0000  plane waves:   47806

 maximum and minimum number of plane-waves per node :     47902    47799

 maximum number of plane-waves:     47902
 maximum index in each direction: 
   IXMAX=   18   IYMAX=   15   IZMAX=   40
   IXMIN=  -18   IYMIN=  -16   IZMIN=  -40


 serial   3D FFT for wavefunctions
 parallel 3D FFT for charge:
    minimum data exchange during FFTs selected (reduces bandwidth)


 total amount of memory used by VASP MPI-rank0   900314. kBytes
=======================================================================

   base      :      30000. kBytes
   nonlr-proj:      16400. kBytes
   fftplans  :     204368. kBytes
   grid      :     365838. kBytes
   one-center:        196. kBytes
   wavefun   :     283512. kBytes
 
     INWAV:  cpu time      0.0003: real time      0.0000
 Broyden mixing: mesh for mixing (old mesh)
   NGX = 37   NGY = 31   NGZ = 81
  (NGX  =144   NGY  =128   NGZ  =324)
  gives a total of  92907 points

 initial charge density was supplied:
 charge density of overlapping atoms calculated
 number of electron     300.0000000 magnetization 
 keeping initial charge density in first step


--------------------------------------------------------------------------------------------------------


 Maximum index for non-local projection operator         3035
 Maximum index for augmentation-charges        16350 (set IRDMAX)


--------------------------------------------------------------------------------------------------------


 First call to EWALD:  gamma=   0.148
 Maximum number of real-space cells 3x 4x 2
 Maximum number of reciprocal cells 2x 2x 5

    FEWALD:  cpu time      0.0115: real time      0.0058


--------------------------------------- Iteration      1(   1)  ---------------------------------------


    POTLOK:  cpu time      8.3890: real time      1.2708
    SETDIJ:  cpu time      0.6596: real time      0.0943
     EDDAV:  cpu time     22.3854: real time      3.2558
       DOS:  cpu time      0.0174: real time      0.0025
    --------------------------------------------
      LOOP:  cpu time     31.4520: real time      4.6235

 eigenvalue-minimisations  :  2610
 total energy-change (2. order) : 0.2885693E+04  (-0.1302627E+05)
 number of electron     300.0000000 magnetization 
 augmentation part      300.0000000 magnetization 

 Free energy of the ion-electron system (eV)
  ---------------------------------------------------
  alpha Z        PSCENC =       139.45024009
  Ewald energy   TEWEN  =     72655.66321455
  -Hartree energ DENC   =    -87627.70181200
  -exchange      EXHF   =         0.00000000
  -V(xc)+E(xc)   XCENC  =       274.90723545
  PAW double counting   =     14329.38556758   -13499.41069321
  entropy T*S    EENTRO =        -0.06945891
  eigenvalues    EBANDS =      -450.51594360
  atomic energy  EATOM  =     17063.98418215
  Solvation  Ediel_sol  =         0.00000000
  ---------------------------------------------------
  free energy    TOTEN  =      2885.69253210 eV

  energy without entropy =     2885.76199101  energy(sigma->0) =     2885.72726156


--------------------------------------------------------------------------------------------------------




--------------------------------------- Iteration      1(   2)  ---------------------------------------


     EDDAV:  cpu time     27.7909: real time      3.9770
       DOS:  cpu time      0.0117: real time      0.0017
    --------------------------------------------
      LOOP:  cpu time     27.8024: real time      3.9787

 eigenvalue-minimisations  :  3493
 total energy-change (2. order) :-0.2859409E+04  (-0.2742392E+04)
 number of electron     300.0000000 magnetization 
 augmentation part      300.0000000 magnetization 

 Free energy of the ion-electron system (eV)
  ---------------------------------------------------
  alpha Z        PSCENC =       139.45024009
  Ewald energy   TEWEN  =     72655.66321455
  -Hartree energ DENC   =    -87627.70181200
  -exchange      EXHF   =         0.00000000
  -V(xc)+E(xc)   XCENC  =       274.90723545
  PAW double counting   =     14329.38556758   -13499.41069321
  entropy T*S    EENTRO =        -0.02969290
  eigenvalues    EBANDS =     -3309.96436159
  atomic energy  EATOM  =     17063.98418215
  Solvation  Ediel_sol  =         0.00000000
  ---------------------------------------------------
  free energy    TOTEN  =        26.28388012 eV

  energy without entropy =       26.31357302  energy(sigma->0) =       26.29872657


--------------------------------------------------------------------------------------------------------




--------------------------------------- Iteration      1(   3)  ---------------------------------------


     EDDAV:  cpu time     24.3164: real time      3.4931
       DOS:  cpu time      0.0117: real time      0.0017
    --------------------------------------------
      LOOP:  cpu time     24.3282: real time      3.4948

 eigenvalue-minimisations  :  2988
 total energy-change (2. order) :-0.5129826E+03  (-0.5100306E+03)
 number of electron     300.0000000 magnetization 
 augmentation part      300.0000000 magnetization 

 Free energy of the ion-electron system (eV)
  ---------------------------------------------------
  alpha Z        PSCENC =       139.45024009
  Ewald energy   TEWEN  =     72655.66321455
  -Hartree energ DENC   =    -87627.70181200
  -exchange      EXHF   =         0.00000000
  -V(xc)+E(xc)   XCENC  =       274.90723545
  PAW double counting   =     14329.38556758   -13499.41069321
  entropy T*S    EENTRO =        -0.04381119
  eigenvalues    EBANDS =     -3822.93279885
  atomic energy  EATOM  =     17063.98418215
  Solvation  Ediel_sol  =         0.00000000
  ---------------------------------------------------
  free energy    TOTEN  =      -486.69867543 eV

  energy without entropy =     -486.65486424  energy(sigma->0) =     -486.67676983


--------------------------------------------------------------------------------------------------------




--------------------------------------- Iteration      1(   4)  ---------------------------------------


     EDDAV:  cpu time     24.2379: real time      3.4843
       DOS:  cpu time      0.0116: real time      0.0017
    --------------------------------------------
      LOOP:  cpu time     24.2495: real time      3.4860

 eigenvalue-minimisations  :  2956
 total energy-change (2. order) :-0.1567406E+02  (-0.1562718E+02)
 number of electron     300.0000000 magnetization 
 augmentation part      300.0000000 magnetization 

 Free energy of the ion-electron system (eV)
  ---------------------------------------------------
  alpha Z        PSCENC =       139.45024009
  Ewald energy   TEWEN  =     72655.66321455
  -Hartree energ DENC   =    -87627.70181200
  -exchange      EXHF   =         0.00000000
  -V(xc)+E(xc)   XCENC  =       274.90723545
  PAW double counting   =     14329.38556758   -13499.41069321
  entropy T*S    EENTRO =        -0.04474096
  eigenvalues    EBANDS =     -3838.60592751
  atomic energy  EATOM  =     17063.98418215
  Solvation  Ediel_sol  =         0.00000000
  ---------------------------------------------------
  free energy    TOTEN  =      -502.37273386 eV

  energy without entropy =     -502.32799290  energy(sigma->0) =     -502.35036338


--------------------------------------------------------------------------------------------------------




--------------------------------------- Iteration      1(   5)  ---------------------------------------


     EDDAV:  cpu time     24.9703: real time      3.5972
       DOS:  cpu time      0.0118: real time      0.0017
    CHARGE:  cpu time      1.5928: real time      0.2288
    MIXING:  cpu time      0.5257: real time      0.0756
    --------------------------------------------
      LOOP:  cpu time     27.1011: real time      3.9033

 eigenvalue-minimisations  :  3116
 total energy-change (2. order) :-0.4367181E+00  (-0.4362640E+00)
 number of electron     299.9999797 magnetization 
 augmentation part       28.1573104 magnetization 

 Broyden mixing:
  rms(total) = 0.45302E+01    rms(broyden)= 0.45293E+01
  rms(prec ) = 0.49466E+01
  weight for this iteration     100.00

 Free energy of the ion-electron system (eV)
  ---------------------------------------------------
  alpha Z        PSCENC =       139.45024009
  Ewald energy   TEWEN  =     72655.66321455
  -Hartree energ DENC   =    -87627.70181200
  -exchange      EXHF   =         0.00000000
  -V(xc)+E(xc)   XCENC  =       274.90723545
  PAW double counting   =     14329.38556758   -13499.41069321
  entropy T*S    EENTRO =        -0.04470531
  eigenvalues    EBANDS =     -3839.04268125
  atomic energy  EATOM  =     17063.98418215
  Solvation  Ediel_sol  =         0.00000000
  ---------------------------------------------------
  free energy    TOTEN  =      -502.80945195 eV

  energy without entropy =     -502.76474664  energy(sigma->0) =     -502.78709930


--------------------------------------------------------------------------------------------------------




--------------------------------------- Iteration      1(   6)  ---------------------------------------


    POTLOK:  cpu time      8.2360: real time      1.2407
    SETDIJ:  cpu time      0.4503: real time      0.0643
    EDDIAG:  cpu time      1.6448: real time      0.2353
  RMM-DIIS:  cpu time      3.3580: real time      1.2335
    ORTHCH:  cpu time      0.0954: real time      0.0479
       DOS:  cpu time      0.0036: real time      0.0018
    CHARGE:  cpu time      0.9787: real time      0.2175
    MIXING:  cpu time      0.5013: real time      0.0719
    --------------------------------------------
      LOOP:  cpu time     15.2681: real time      3.1130

 eigenvalue-minimisations  :  2606
 total energy-change (2. order) : 0.6409149E+02  (-0.2587503E+02)
 number of electron     299.9999829 magnetization 
 augmentation part       23.5935678 magnetization 

 Broyden mixing:
  rms(total) = 0.13746E+01    rms(broyden)= 0.13736E+01
  rms(prec ) = 0.15096E+01
  weight for this iteration     100.00

 eigenvalues of (default mixing * dielectric matrix)
  average eigenvalue GAMMA=   0.9716
  0.9716

 Free energy of the ion-electron system (eV)
  ---------------------------------------------------
  alpha Z        PSCENC =       139.45024009
  Ewald energy   TEWEN  =     72655.66321455
  -Hartree energ DENC   =    -88381.79639005
  -exchange      EXHF   =         0.00000000
  -V(xc)+E(xc)   XCENC  =       318.05852460
  PAW double counting   =     18178.03078691   -17360.02830977
  entropy T*S    EENTRO =        -0.06075800
  eigenvalues    EBANDS =     -3052.01945418
  atomic energy  EATOM  =     17063.98418215
  Solvation  Ediel_sol  =         0.00000000
  ---------------------------------------------------
  free energy    TOTEN  =      -438.71796369 eV

  energy without entropy =     -438.65720570  energy(sigma->0) =     -438.68758469


--------------------------------------------------------------------------------------------------------




--------------------------------------- Iteration      1(   7)  ---------------------------------------


    POTLOK:  cpu time      8.2530: real time      1.2408
    SETDIJ:  cpu time      0.4502: real time      0.0643
    EDDIAG:  cpu time      1.6485: real time      0.2359
  RMM-DIIS:  cpu time      3.4901: real time      1.3139
    ORTHCH:  cpu time      0.0974: real time      0.0497
       DOS:  cpu time      0.0034: real time      0.0017
    CHARGE:  cpu time      0.9749: real time      0.2170
    MIXING:  cpu time      0.5085: real time      0.0727
    --------------------------------------------
      LOOP:  cpu time     15.4261: real time      3.1961

 eigenvalue-minimisations  :  2626
 total energy-change (2. order) : 0.5820026E+00  (-0.2509110E+01)
 number of electron     299.9999833 magnetization 
 augmentation part       23.0218914 magnetization 

 Broyden mixing:
  rms(total) = 0.93870E+00    rms(broyden)= 0.93853E+00
  rms(prec ) = 0.10231E+01
  weight for this iteration     100.00

 eigenvalues of (default mixing * dielectric matrix)
  average eigenvalue GAMMA=   1.5626
  1.2099  1.9152

 Free energy of the ion-electron system (eV)
  ---------------------------------------------------
  alpha Z        PSCENC =       139.45024009
  Ewald energy   TEWEN  =     72655.66321455
  -Hartree energ DENC   =    -88527.69437131
  -exchange      EXHF   =         0.00000000
  -V(xc)+E(xc)   XCENC  =       323.31540065
  PAW double counting   =     20577.31982751   -19758.95540339
  entropy T*S    EENTRO =        -0.06616835
  eigenvalues    EBANDS =     -2911.15288300
  atomic energy  EATOM  =     17063.98418215
  Solvation  Ediel_sol  =         0.00000000
  ---------------------------------------------------
  free energy    TOTEN  =      -438.13596108 eV

  energy without entropy =     -438.06979273  energy(sigma->0) =     -438.10287690


--------------------------------------------------------------------------------------------------------




--------------------------------------- Iteration      1(   8)  ---------------------------------------


    POTLOK:  cpu time      8.2250: real time      1.2355
    SETDIJ:  cpu time      0.6141: real time      0.0877
    EDDIAG:  cpu time      1.6455: real time      0.2356
  RMM-DIIS:  cpu time      3.5121: real time      1.3249
    ORTHCH:  cpu time      0.0967: real time      0.0492
       DOS:  cpu time      0.0033: real time      0.0017
    CHARGE:  cpu time      1.0225: real time      0.2240
    MIXING:  cpu time      0.6062: real time      0.0867
    --------------------------------------------
      LOOP:  cpu time     15.7255: real time      3.2453

 eigenvalue-minimisations  :  2619
 total energy-change (2. order) : 0.1599784E+01  (-0.4877098E+00)
 number of electron     299.9999833 magnetization 
 augmentation part       23.0331138 magnetization 

 Broyden mixing:
  rms(total) = 0.18573E+00    rms(broyden)= 0.18565E+00
  rms(prec ) = 0.29322E+00
  weight for this iteration     100.00

 eigenvalues of (default mixing * dielectric matrix)
  average eigenvalue GAMMA=   1.4332
  2.2659  1.1422  0.8914

 Free energy of the ion-electron system (eV)
  ---------------------------------------------------
  alpha Z        PSCENC =       139.45024009
  Ewald energy   TEWEN  =     72655.66321455
  -Hartree energ DENC   =    -88619.63428346
  -exchange      EXHF   =         0.00000000
  -V(xc)+E(xc)   XCENC  =       323.13541630
  PAW double counting   =     23507.94985072   -22687.96259159
  entropy T*S    EENTRO =        -0.06812074
  eigenvalues    EBANDS =     -2819.05408464
  atomic energy  EATOM  =     17063.98418215
  Solvation  Ediel_sol  =         0.00000000
  ---------------------------------------------------
  free energy    TOTEN  =      -436.53617660 eV

  energy without entropy =     -436.46805586  energy(sigma->0) =     -436.50211623


--------------------------------------------------------------------------------------------------------




--------------------------------------- Iteration      1(   9)  ---------------------------------------


    POTLOK:  cpu time      8.4067: real time      1.2696
    SETDIJ:  cpu time      0.4111: real time      0.0591
    EDDIAG:  cpu time      1.6379: real time      0.2356
  RMM-DIIS:  cpu time      3.8513: real time      1.4988
    ORTHCH:  cpu time      0.0966: real time      0.0491
       DOS:  cpu time      0.0033: real time      0.0016
    CHARGE:  cpu time      0.9905: real time      0.2197
    MIXING:  cpu time      0.5431: real time      0.0780
    --------------------------------------------
      LOOP:  cpu time     15.9405: real time      3.4116

 eigenvalue-minimisations  :  2861
 total energy-change (2. order) : 0.1645082E+00  (-0.1545189E+00)
 number of electron     299.9999833 magnetization 
 augmentation part       22.9618485 magnetization 

 Broyden mixing:
  rms(total) = 0.12911E+00    rms(broyden)= 0.12900E+00
  rms(prec ) = 0.22149E+00
  weight for this iteration     100.00

 eigenvalues of (default mixing * dielectric matrix)
  average eigenvalue GAMMA=   1.4644
  1.9535  1.9535  1.1254  0.8253

 Free energy of the ion-electron system (eV)
  ---------------------------------------------------
  alpha Z        PSCENC =       139.45024009
  Ewald energy   TEWEN  =     72655.66321455
  -Hartree energ DENC   =    -88672.56701296
  -exchange      EXHF   =         0.00000000
  -V(xc)+E(xc)   XCENC  =       323.96427316
  PAW double counting   =     23952.08860576   -23132.06583486
  entropy T*S    EENTRO =        -0.06565077
  eigenvalues    EBANDS =     -2766.82368554
  atomic energy  EATOM  =     17063.98418215
  Solvation  Ediel_sol  =         0.00000000
  ---------------------------------------------------
  free energy    TOTEN  =      -436.37166840 eV

  energy without entropy =     -436.30601763  energy(sigma->0) =     -436.33884301


--------------------------------------------------------------------------------------------------------




--------------------------------------- Iteration      1(  10)  ---------------------------------------


    POTLOK:  cpu time      8.2943: real time      1.2502
    SETDIJ:  cpu time      0.4124: real time      0.0592
    EDDIAG:  cpu time      1.6469: real time      0.2365
  RMM-DIIS:  cpu time      3.7979: real time      1.4692
    ORTHCH:  cpu time      0.0971: real time      0.0495
       DOS:  cpu time      0.0034: real time      0.0017
    CHARGE:  cpu time      0.9772: real time      0.2173
    MIXING:  cpu time      0.5377: real time      0.0768
    --------------------------------------------
      LOOP:  cpu time     15.7669: real time      3.3604

 eigenvalue-minimisations  :  2803
 total energy-change (2. order) : 0.1151178E+00  (-0.2695014E-01)
 number of electron     299.9999834 magnetization 
 augmentation part       22.9041675 magnetization 

 Broyden mixing:
  rms(total) = 0.87094E-01    rms(broyden)= 0.87074E-01
  rms(prec ) = 0.16793E+00
  weight for this iteration     100.00

 eigenvalues of (default mixing * dielectric matrix)
  average eigenvalue GAMMA=   1.4769
  2.3787  2.3787  1.0427  0.8897  0.6949

 Free energy of the ion-electron system (eV)
  ---------------------------------------------------
  alpha Z        PSCENC =       139.45024009
  Ewald energy   TEWEN  =     72655.66321455
  -Hartree energ DENC   =    -88707.96208724
  -exchange      EXHF   =         0.00000000
  -V(xc)+E(xc)   XCENC  =       324.39524086
  PAW double counting   =     23753.41845850   -22933.53104341
  entropy T*S    EENTRO =        -0.06963342
  eigenvalues    EBANDS =     -2731.60512267
  atomic energy  EATOM  =     17063.98418215
  Solvation  Ediel_sol  =         0.00000000
  ---------------------------------------------------
  free energy    TOTEN  =      -436.25655059 eV

  energy without entropy =     -436.18691716  energy(sigma->0) =     -436.22173387


--------------------------------------------------------------------------------------------------------




--------------------------------------- Iteration      1(  11)  ---------------------------------------


    POTLOK:  cpu time      8.2413: real time      1.2379
    SETDIJ:  cpu time      0.5614: real time      0.0802
    EDDIAG:  cpu time      1.6567: real time      0.2369
  RMM-DIIS:  cpu time      3.5169: real time      1.3249
    ORTHCH:  cpu time      0.0970: real time      0.0494
       DOS:  cpu time      0.0030: real time      0.0015
    CHARGE:  cpu time      0.9746: real time      0.2170
    MIXING:  cpu time      0.5365: real time      0.0767
    --------------------------------------------
      LOOP:  cpu time     15.5875: real time      3.2245

 eigenvalue-minimisations  :  2621
 total energy-change (2. order) : 0.1606920E+00  (-0.1265097E-01)
 number of electron     299.9999834 magnetization 
 augmentation part       22.8939852 magnetization 

 Broyden mixing:
  rms(total) = 0.53382E-01    rms(broyden)= 0.53368E-01
  rms(prec ) = 0.13108E+00
  weight for this iteration     100.00

 eigenvalues of (default mixing * dielectric matrix)
  average eigenvalue GAMMA=   1.4996
  2.5306  1.8541  1.8541  1.0747  1.0136  0.6702

 Free energy of the ion-electron system (eV)
  ---------------------------------------------------
  alpha Z        PSCENC =       139.45024009
  Ewald energy   TEWEN  =     72655.66321455
  -Hartree energ DENC   =    -88761.91669486
  -exchange      EXHF   =         0.00000000
  -V(xc)+E(xc)   XCENC  =       324.50007168
  PAW double counting   =     23335.74879879   -22515.87046822
  entropy T*S    EENTRO =        -0.06938910
  eigenvalues    EBANDS =     -2677.58581372
  atomic energy  EATOM  =     17063.98418215
  Solvation  Ediel_sol  =         0.00000000
  ---------------------------------------------------
  free energy    TOTEN  =      -436.09585863 eV

  energy without entropy =     -436.02646953  energy(sigma->0) =     -436.06116408


--------------------------------------------------------------------------------------------------------




--------------------------------------- Iteration      1(  12)  ---------------------------------------


    POTLOK:  cpu time      8.2279: real time      1.2357
    SETDIJ:  cpu time      0.5865: real time      0.0838
    EDDIAG:  cpu time      1.6490: real time      0.2358
  RMM-DIIS:  cpu time      3.5185: real time      1.3243
    ORTHCH:  cpu time      0.0968: real time      0.0492
       DOS:  cpu time      0.0033: real time      0.0017
    CHARGE:  cpu time      0.9748: real time      0.2171
    MIXING:  cpu time      0.5527: real time      0.0790
    --------------------------------------------
      LOOP:  cpu time     15.6094: real time      3.2266

 eigenvalue-minimisations  :  2617
 total energy-change (2. order) : 0.7436819E-01  (-0.6202063E-02)
 number of electron     299.9999834 magnetization 
 augmentation part       22.9031897 magnetization 

 Broyden mixing:
  rms(total) = 0.36704E-01    rms(broyden)= 0.36698E-01
  rms(prec ) = 0.10913E+00
  weight for this iteration     100.00

 eigenvalues of (default mixing * dielectric matrix)
  average eigenvalue GAMMA=   1.5300
  3.1751  2.5475  1.3475  1.0901  1.0901  0.8676  0.5924

 Free energy of the ion-electron system (eV)
  ---------------------------------------------------
  alpha Z        PSCENC =       139.45024009
  Ewald energy   TEWEN  =     72655.66321455
  -Hartree energ DENC   =    -88790.47079711
  -exchange      EXHF   =         0.00000000
  -V(xc)+E(xc)   XCENC  =       324.46253206
  PAW double counting   =     23346.23904799   -22526.26064923
  entropy T*S    EENTRO =        -0.06999704
  eigenvalues    EBANDS =     -2649.01926391
  atomic energy  EATOM  =     17063.98418215
  Solvation  Ediel_sol  =         0.00000000
  ---------------------------------------------------
  free energy    TOTEN  =      -436.02149044 eV

  energy without entropy =     -435.95149340  energy(sigma->0) =     -435.98649192


--------------------------------------------------------------------------------------------------------




--------------------------------------- Iteration      1(  13)  ---------------------------------------


    POTLOK:  cpu time      8.2331: real time      1.2357
    SETDIJ:  cpu time      0.4944: real time      0.0708
    EDDIAG:  cpu time      1.6474: real time      0.2364
  RMM-DIIS:  cpu time      3.7533: real time      1.4450
    ORTHCH:  cpu time      0.0969: real time      0.0494
       DOS:  cpu time      0.0034: real time      0.0017
    CHARGE:  cpu time      1.0201: real time      0.2232
    MIXING:  cpu time      0.6597: real time      0.0945
    --------------------------------------------
      LOOP:  cpu time     15.9083: real time      3.3567

 eigenvalue-minimisations  :  2791
 total energy-change (2. order) : 0.1217085E+00  (-0.8093268E-02)
 number of electron     299.9999834 magnetization 
 augmentation part       22.8759223 magnetization 

 Broyden mixing:
  rms(total) = 0.42362E-01    rms(broyden)= 0.42348E-01
  rms(prec ) = 0.84642E-01
  weight for this iteration     100.00

 eigenvalues of (default mixing * dielectric matrix)
  average eigenvalue GAMMA=   1.5824
  2.8508  2.2825  2.2825  1.4346  1.1132  1.1132  0.9404  0.6424

 Free energy of the ion-electron system (eV)
  ---------------------------------------------------
  alpha Z        PSCENC =       139.45024009
  Ewald energy   TEWEN  =     72655.66321455
  -Hartree energ DENC   =    -88862.24657598
  -exchange      EXHF   =         0.00000000
  -V(xc)+E(xc)   XCENC  =       324.72468319
  PAW double counting   =     23095.52759607   -22275.54556937
  entropy T*S    EENTRO =        -0.07051238
  eigenvalues    EBANDS =     -2577.38704026
  atomic energy  EATOM  =     17063.98418215
  Solvation  Ediel_sol  =         0.00000000
  ---------------------------------------------------
  free energy    TOTEN  =      -435.89978192 eV

  energy without entropy =     -435.82926954  energy(sigma->0) =     -435.86452573


--------------------------------------------------------------------------------------------------------




--------------------------------------- Iteration      1(  14)  ---------------------------------------


    POTLOK:  cpu time      8.1960: real time      1.2329
    SETDIJ:  cpu time      0.6574: real time      0.0946
    EDDIAG:  cpu time      1.6448: real time      0.2358
  RMM-DIIS:  cpu time      3.7579: real time      1.4454
    ORTHCH:  cpu time      0.0970: real time      0.0494
       DOS:  cpu time      0.0034: real time      0.0017
    CHARGE:  cpu time      0.9788: real time      0.2176
    MIXING:  cpu time      0.5828: real time      0.0833
    --------------------------------------------
      LOOP:  cpu time     15.9181: real time      3.3607

 eigenvalue-minimisations  :  2771
 total energy-change (2. order) : 0.7494015E-01  (-0.7648256E-02)
 number of electron     299.9999834 magnetization 
 augmentation part       22.8984679 magnetization 

 Broyden mixing:
  rms(total) = 0.33146E-01    rms(broyden)= 0.33135E-01
  rms(prec ) = 0.69094E-01
  weight for this iteration     100.00

 eigenvalues of (default mixing * dielectric matrix)
  average eigenvalue GAMMA=   1.8083
  5.1379  2.7495  2.4372  1.1952  1.1952  1.0711  0.9242  0.9242  0.6400

 Free energy of the ion-electron system (eV)
  ---------------------------------------------------
  alpha Z        PSCENC =       139.45024009
  Ewald energy   TEWEN  =     72655.66321455
  -Hartree energ DENC   =    -88913.26065548
  -exchange      EXHF   =         0.00000000
  -V(xc)+E(xc)   XCENC  =       324.48572491
  PAW double counting   =     23290.19682398   -22470.03742217
  entropy T*S    EENTRO =        -0.07002870
  eigenvalues    EBANDS =     -2526.23692111
  atomic energy  EATOM  =     17063.98418215
  Solvation  Ediel_sol  =         0.00000000
  ---------------------------------------------------
  free energy    TOTEN  =      -435.82484177 eV

  energy without entropy =     -435.75481307  energy(sigma->0) =     -435.78982742


--------------------------------------------------------------------------------------------------------




--------------------------------------- Iteration      1(  15)  ---------------------------------------


    POTLOK:  cpu time      8.0616: real time      1.2133
    SETDIJ:  cpu time      0.4760: real time      0.0682
    EDDIAG:  cpu time      1.6342: real time      0.2350
  RMM-DIIS:  cpu time      3.6203: real time      1.3782
    ORTHCH:  cpu time      0.0970: real time      0.0494
       DOS:  cpu time      0.0033: real time      0.0017
    CHARGE:  cpu time      0.9747: real time      0.2172
    MIXING:  cpu time      0.6129: real time      0.0884
    --------------------------------------------
      LOOP:  cpu time     15.4801: real time      3.2513

 eigenvalue-minimisations  :  2699
 total energy-change (2. order) : 0.6523524E-01  (-0.3044254E-02)
 number of electron     299.9999834 magnetization 
 augmentation part       22.8902992 magnetization 

 Broyden mixing:
  rms(total) = 0.23953E-01    rms(broyden)= 0.23947E-01
  rms(prec ) = 0.51382E-01
  weight for this iteration     100.00

 eigenvalues of (default mixing * dielectric matrix)
  average eigenvalue GAMMA=   2.0511
  7.0479  3.1307  2.4816  1.8226  1.4615  0.6419  0.9949  0.9949  0.9675  0.9675

 Free energy of the ion-electron system (eV)
  ---------------------------------------------------
  alpha Z        PSCENC =       139.45024009
  Ewald energy   TEWEN  =     72655.66321455
  -Hartree energ DENC   =    -88954.70112668
  -exchange      EXHF   =         0.00000000
  -V(xc)+E(xc)   XCENC  =       324.63689772
  PAW double counting   =     23266.85375284   -22446.69208528
  entropy T*S    EENTRO =        -0.07100740
  eigenvalues    EBANDS =     -2484.88367454
  atomic energy  EATOM  =     17063.98418215
  Solvation  Ediel_sol  =         0.00000000
  ---------------------------------------------------
  free energy    TOTEN  =      -435.75960653 eV

  energy without entropy =     -435.68859913  energy(sigma->0) =     -435.72410283


--------------------------------------------------------------------------------------------------------




--------------------------------------- Iteration      1(  16)  ---------------------------------------


    POTLOK:  cpu time      8.0282: real time      1.2124
    SETDIJ:  cpu time      0.4128: real time      0.0593
    EDDIAG:  cpu time      1.6447: real time      0.2363
  RMM-DIIS:  cpu time      3.8581: real time      1.4978
    ORTHCH:  cpu time      0.0963: real time      0.0492
       DOS:  cpu time      0.0034: real time      0.0017
    CHARGE:  cpu time      0.9739: real time      0.2176
    MIXING:  cpu time      0.6278: real time      0.0903
    --------------------------------------------
      LOOP:  cpu time     15.6453: real time      3.3646

 eigenvalue-minimisations  :  2787
 total energy-change (2. order) :-0.4047219E-02  (-0.3858265E-02)
 number of electron     299.9999834 magnetization 
 augmentation part       22.8806743 magnetization 

 Broyden mixing:
  rms(total) = 0.39493E-01    rms(broyden)= 0.39485E-01
  rms(prec ) = 0.90045E-01
  weight for this iteration     100.00

 eigenvalues of (default mixing * dielectric matrix)
  average eigenvalue GAMMA=   1.9919
  7.3988  3.5148  2.5113  1.9305  1.3642  1.0157  1.0157  0.9090  0.9090  0.6145
  0.7276

 Free energy of the ion-electron system (eV)
  ---------------------------------------------------
  alpha Z        PSCENC =       139.45024009
  Ewald energy   TEWEN  =     72655.66321455
  -Hartree energ DENC   =    -89014.39729420
  -exchange      EXHF   =         0.00000000
  -V(xc)+E(xc)   XCENC  =       324.85520818
  PAW double counting   =     23267.89609096   -22447.80823506
  entropy T*S    EENTRO =        -0.07004580
  eigenvalues    EBANDS =     -2425.33701463
  atomic energy  EATOM  =     17063.98418215
  Solvation  Ediel_sol  =         0.00000000
  ---------------------------------------------------
  free energy    TOTEN  =      -435.76365375 eV

  energy without entropy =     -435.69360795  energy(sigma->0) =     -435.72863085


--------------------------------------------------------------------------------------------------------




--------------------------------------- Iteration      1(  17)  ---------------------------------------


    POTLOK:  cpu time      8.0716: real time      1.2192
    SETDIJ:  cpu time      0.4113: real time      0.0592
    EDDIAG:  cpu time      1.6477: real time      0.2383
  RMM-DIIS:  cpu time      3.6303: real time      1.3878
    ORTHCH:  cpu time      0.0970: real time      0.0494
       DOS:  cpu time      0.0035: real time      0.0017
    CHARGE:  cpu time      0.9726: real time      0.2178
    MIXING:  cpu time      0.6611: real time      0.0948
    --------------------------------------------
      LOOP:  cpu time     15.4950: real time      3.2682

 eigenvalue-minimisations  :  2701
 total energy-change (2. order) :-0.1394641E-01  (-0.1567979E-02)
 number of electron     299.9999834 magnetization 
 augmentation part       22.8702570 magnetization 

 Broyden mixing:
  rms(total) = 0.21765E-01    rms(broyden)= 0.21762E-01
  rms(prec ) = 0.35844E-01
  weight for this iteration     100.00

 eigenvalues of (default mixing * dielectric matrix)
  average eigenvalue GAMMA=   2.0847
  8.3742  3.8747  2.4893  1.7792  1.7792  1.2898  1.0773  1.0773  0.6351  0.9398
  0.8503  0.8503

 Free energy of the ion-electron system (eV)
  ---------------------------------------------------
  alpha Z        PSCENC =       139.45024009
  Ewald energy   TEWEN  =     72655.66321455
  -Hartree energ DENC   =    -89010.33521449
  -exchange      EXHF   =         0.00000000
  -V(xc)+E(xc)   XCENC  =       324.87460802
  PAW double counting   =     23286.05101747   -22466.01673231
  entropy T*S    EENTRO =        -0.07093232
  eigenvalues    EBANDS =     -2429.37798333
  atomic energy  EATOM  =     17063.98418215
  Solvation  Ediel_sol  =         0.00000000
  ---------------------------------------------------
  free energy    TOTEN  =      -435.77760016 eV

  energy without entropy =     -435.70666784  energy(sigma->0) =     -435.74213400


--------------------------------------------------------------------------------------------------------




--------------------------------------- Iteration      1(  18)  ---------------------------------------


    POTLOK:  cpu time      8.1021: real time      1.2223
    SETDIJ:  cpu time      0.4285: real time      0.0615
    EDDIAG:  cpu time      1.6404: real time      0.2360
  RMM-DIIS:  cpu time      3.8679: real time      1.4920
    ORTHCH:  cpu time      0.0954: real time      0.0479
       DOS:  cpu time      0.0053: real time      0.0026
    CHARGE:  cpu time      0.9762: real time      0.2173
    MIXING:  cpu time      0.6901: real time      0.0991
    --------------------------------------------
      LOOP:  cpu time     15.8057: real time      3.3788

 eigenvalue-minimisations  :  2758
 total energy-change (2. order) :-0.1932195E-01  (-0.1639754E-02)
 number of electron     299.9999834 magnetization 
 augmentation part       22.8856767 magnetization 

 Broyden mixing:
  rms(total) = 0.12626E-01    rms(broyden)= 0.12621E-01
  rms(prec ) = 0.22098E-01
  weight for this iteration     100.00

 eigenvalues of (default mixing * dielectric matrix)
  average eigenvalue GAMMA=   2.5118
 12.0700  5.6799  2.7920  2.5639  1.5419  1.5419  0.9856  0.9856  1.0388  1.0388
  0.6352  0.8898  0.8898

 Free energy of the ion-electron system (eV)
  ---------------------------------------------------
  alpha Z        PSCENC =       139.45024009
  Ewald energy   TEWEN  =     72655.66321455
  -Hartree energ DENC   =    -89012.51651786
  -exchange      EXHF   =         0.00000000
  -V(xc)+E(xc)   XCENC  =       324.65477716
  PAW double counting   =     23256.91453533   -22436.82970976
  entropy T*S    EENTRO =        -0.07032412
  eigenvalues    EBANDS =     -2427.04731966
  atomic energy  EATOM  =     17063.98418215
  Solvation  Ediel_sol  =         0.00000000
  ---------------------------------------------------
  free energy    TOTEN  =      -435.79692211 eV

  energy without entropy =     -435.72659799  energy(sigma->0) =     -435.76176005


--------------------------------------------------------------------------------------------------------




--------------------------------------- Iteration      1(  19)  ---------------------------------------


    POTLOK:  cpu time      8.0687: real time      1.2163
    SETDIJ:  cpu time      0.4302: real time      0.0625
    EDDIAG:  cpu time      1.6252: real time      0.2349
  RMM-DIIS:  cpu time      3.5972: real time      1.3589
    ORTHCH:  cpu time      0.0955: real time      0.0481
       DOS:  cpu time      0.0052: real time      0.0026
    CHARGE:  cpu time      0.9868: real time      0.2190
    MIXING:  cpu time      0.7161: real time      0.1030
    --------------------------------------------
      LOOP:  cpu time     15.5250: real time      3.2454

 eigenvalue-minimisations  :  2492
 total energy-change (2. order) :-0.1105439E-01  (-0.5509145E-03)
 number of electron     299.9999834 magnetization 
 augmentation part       22.8836116 magnetization 

 Broyden mixing:
  rms(total) = 0.67080E-02    rms(broyden)= 0.67076E-02
  rms(prec ) = 0.11858E-01
  weight for this iteration     100.00

 eigenvalues of (default mixing * dielectric matrix)
  average eigenvalue GAMMA=   2.7852
 15.9211  6.1696  3.0426  2.3177  2.3177  1.4423  1.4423  0.6354  0.9556  0.9556
  1.0110  1.0110  0.8856  0.8856

 Free energy of the ion-electron system (eV)
  ---------------------------------------------------
  alpha Z        PSCENC =       139.45024009
  Ewald energy   TEWEN  =     72655.66321455
  -Hartree energ DENC   =    -89027.07668026
  -exchange      EXHF   =         0.00000000
  -V(xc)+E(xc)   XCENC  =       324.69237744
  PAW double counting   =     23225.30989752   -22405.23435817
  entropy T*S    EENTRO =        -0.07034377
  eigenvalues    EBANDS =     -2412.52650607
  atomic energy  EATOM  =     17063.98418215
  Solvation  Ediel_sol  =         0.00000000
  ---------------------------------------------------
  free energy    TOTEN  =      -435.80797650 eV

  energy without entropy =     -435.73763273  energy(sigma->0) =     -435.77280462


--------------------------------------------------------------------------------------------------------




--------------------------------------- Iteration      1(  20)  ---------------------------------------


    POTLOK:  cpu time      7.9847: real time      1.2036
    SETDIJ:  cpu time      0.5035: real time      0.0721
    EDDIAG:  cpu time      1.6471: real time      0.2358
  RMM-DIIS:  cpu time      3.6615: real time      1.3987
    ORTHCH:  cpu time      0.0969: real time      0.0493
       DOS:  cpu time      0.0032: real time      0.0016
    CHARGE:  cpu time      1.0187: real time      0.2235
    MIXING:  cpu time      0.8464: real time      0.1211
    --------------------------------------------
      LOOP:  cpu time     15.7621: real time      3.3057

 eigenvalue-minimisations  :  2590
 total energy-change (2. order) :-0.5244376E-02  (-0.4520315E-03)
 number of electron     299.9999834 magnetization 
 augmentation part       22.8777493 magnetization 

 Broyden mixing:
  rms(total) = 0.10732E-01    rms(broyden)= 0.10730E-01
  rms(prec ) = 0.19080E-01
  weight for this iteration     100.00

 eigenvalues of (default mixing * dielectric matrix)
  average eigenvalue GAMMA=   3.0170
 19.3004  6.6072  3.5590  2.5703  2.3299  2.0264  1.2284  1.2284  1.0266  1.0266
  0.6353  0.9449  0.9449  0.9137  0.9137

 Free energy of the ion-electron system (eV)
  ---------------------------------------------------
  alpha Z        PSCENC =       139.45024009
  Ewald energy   TEWEN  =     72655.66321455
  -Hartree energ DENC   =    -89033.67252061
  -exchange      EXHF   =         0.00000000
  -V(xc)+E(xc)   XCENC  =       324.74443342
  PAW double counting   =     23235.31822465   -22415.22409013
  entropy T*S    EENTRO =        -0.07032535
  eigenvalues    EBANDS =     -2406.00657966
  atomic energy  EATOM  =     17063.98418215
  Solvation  Ediel_sol  =         0.00000000
  ---------------------------------------------------
  free energy    TOTEN  =      -435.81322088 eV

  energy without entropy =     -435.74289553  energy(sigma->0) =     -435.77805820


--------------------------------------------------------------------------------------------------------




--------------------------------------- Iteration      1(  21)  ---------------------------------------


    POTLOK:  cpu time      7.9837: real time      1.2013
    SETDIJ:  cpu time      0.8173: real time      0.1168
    EDDIAG:  cpu time      1.6528: real time      0.2365
  RMM-DIIS:  cpu time      3.5318: real time      1.3311
    ORTHCH:  cpu time      0.0950: real time      0.0481
       DOS:  cpu time      0.0050: real time      0.0025
    CHARGE:  cpu time      1.0643: real time      0.2326
    MIXING:  cpu time      0.7804: real time      0.1116
    --------------------------------------------
      LOOP:  cpu time     15.9304: real time      3.2805

 eigenvalue-minimisations  :  2575
 total energy-change (2. order) :-0.2776459E-02  (-0.3285258E-03)
 number of electron     299.9999834 magnetization 
 augmentation part       22.8856768 magnetization 

 Broyden mixing:
  rms(total) = 0.51238E-02    rms(broyden)= 0.51221E-02
  rms(prec ) = 0.71789E-02
  weight for this iteration     100.00

[...]
  227          m_sumb_d                              0.107368                          5   4
  228        fordep                                1.191574                            5   3
  229          setdij_                               1.191381                         30   4
  230        setdij_                               3.967069                          100   3
  231        set_dd_magatom                        0.000016                            5   3
  232        set_dd_paw                            0.115410                            5   3
  233          m_sumb_d                              0.020626                         35   4
  234        strkin                                0.082737                            5   3
  235          m_sumb_d                              0.004017                          5   4
  236        strelo                                0.087853                            5   3
  237        strnlr                                8.356566                            5   3
  238          rspher_all                            1.271113                         45   4
  239          phaser                                0.886207                         90   4
  240          rpro_isp                              5.790455                         90   4
  241            fftwav_mpi                            0.389186                    16470   5
  242              fftwav                                0.366256                  16470   6
  243                fft3d                                 0.251273                16470   7
  244            rpromu_acc                            5.338607                     4140   5
  245          m_sumb_d                              0.282789                         45   4
  246        fft3d_mpi                             1.866307                           55   3
  247          fftbrc_mpi                            1.524673                         55   4
  248            fftbas_plan_mpi                       1.524576                       55   5
  249              dfftw_execute                         0.969107                    165   6
  250              map_forward                           0.247111                     50   6
  251                map_scatter                           0.140393                   25   7
  252              map_backward                          0.301470                     60   6
  253                map_gather                            0.197903                   30   7
  254        ggaall_grid                           1.124378                            5   3
  255        forhar                                1.503079                           10   3
  256        strehar                               0.052676                            5   3
  257        chggra                                0.147705                            5   3
  258          fft3d_mpi                             0.104775                         15   4
  259            fftbrc_mpi                            0.093713                       15   5
  260              fftbas_plan_mpi                       0.093705                     15   6
  261                map_forward                           0.000151                   20   7
  262                  map_scatter                           0.000034                 10   8
  263                map_backward                          0.000058                   10   7
  264                  map_gather                            0.000018                  5   8
  265          pothar                                0.005534                          5   4
  266        brmix                                 0.595308                            5   3
  267          brpre                                 0.006052                          5   4
  268          setg0                                 0.180026                          5   4
  269          broyd                                 0.174362                          5   4
  270            brget                                 0.022695                      350   5
  271            brsav                                 0.017164                       87   5
  272          m_bcast_z                             0.171255                          5   4
  273          m_bcast_d                             0.001733                          5   4
  274        m_bcast_d                             0.000141                           10   3
  275      potlok                                5.973913                              5   2
  276        fft3d_mpi                             2.069109                           65   3
  277          fftbrc_mpi                            1.645960                         65   4
  278            fftbas_plan_mpi                       1.645841                       65   5
  279              dfftw_execute                         1.044520                    195   6
  280              map_forward                           0.295538                     70   6
  281                map_scatter                           0.167074                   35   7
  282              map_backward                          0.297436                     60   6
  283                map_gather                            0.194043                   30   7
  284        ggaall_grid                           0.917207                            5   3
  285        pothar                                0.182808                            5   3
  286      potlok_metagga                        0.000003                              5   2
  287      set_dd_magatom                        0.000021                              5   2
  288      set_dd_paw                            0.139433                              5   2
  289        m_sumb_d                              0.044162                           35   3
  290      wavpre_noio                           2.626187                              4   2
  291        stufak                                0.835141                            4   3
  292      densta                                0.001497                              1   2
  293        m_sumb_d                              0.000138                           37   3
 
 Flat profile
 ============
 
             routine name                   CPU           calls
 ---------------------------------------------------------------
 potlok                                 39.741809          71
 eddav                                  23.274567           9
 i2                                     18.070570       10282
 dfftw_execute                          17.234221        3345
 ggaall_grid                            14.147595          76
 rpromu_acc                             13.400620       17212
 eddiag                                 12.631774          61
 hamiltmu                               12.261231       11646
 i3                                     10.963952       10282
 total_time                             10.528488           1
 m_sumb_d                                9.470895        3712
 newband                                 8.200116       11786
 setdij_                                 8.029511         202
 fft3d_mpi                               7.228370       75078
 augmentation_charge                     4.057086          66
 fft3d                                   3.645937      221336
 orth1                                   3.523522        4590
 map_gather                              3.448622         593
 choleski                                3.177859         132
 raccmu_                                 2.911879       11646
 cnorma                                  2.781462      186909
 phaser                                  2.697153         270
 racc0mu_acc                             2.675669       11646
 pothar                                  2.602141          76
 map_scatter                             2.571790         537
 setg0                                   2.248845          71
 force_and_stress                        2.229289           5
 map_forward                             1.964364        1074
 map_backward                            1.824165        1186
 wavpre_noio                             1.791046           4
 rspher_all                              1.790774          66
 eccp                                    1.687104       87923
 m_bcast_z                               1.628901         147
 forhar                                  1.503079          10
 set_dd_paw                              1.441186          76
 lapack                                  1.317354        1364
 elmin                                   1.273982           5
 w1_gemv                                 1.175439      154800
 w1_copy                                 1.172832      154866
 stufak                                  1.056765           5
 fftwav                                  1.032313      147388
 w1_dot                                  1.009876       21917
 broyd                                   0.920083          66
 w1_dscal                                0.890051       95793
 overl_mu                                0.837382       11646
 brmix                                   0.820847          66
 forloc                                  0.752653           5
 lincom                                  0.725245         272
 w1_daxpy                                0.586504       80772
 orthch                                  0.532167          66
 init_hip                                0.471523           1
 set_charge                              0.466836          66
 eddrmm                                  0.353095          61
 w1_gaxpy                                0.322617       42371
 fftbas_plan_mpi                         0.285041        1130
 kinhamil                                0.281605       73948
 overl1                                  0.275180       38700
 fftext_mpi                              0.266125       73948
 soft_charge                             0.259933          66
 vhamil                                  0.258953       73948
 eccp_nl                                 0.257578      124606
 depsum                                  0.254964          66
 proall                                  0.237564           5
 apply_precond                           0.224202       71821
 fftwav_mpi                              0.214258      147388
 brget                                   0.204319        3154
 setup_precond                           0.164188       25620
 brsav                                   0.152522         859
 zhegv                                   0.151126       18469
 strnlr                                  0.126003           5
 overl                                   0.107528       18614
 densta                                  0.097917          71
 rpro_isp                                0.092419         130
 strelo                                  0.087853           5
 brpre                                   0.083771          66
 strkin                                  0.078720           5
 ggemm                                   0.075458        1778
 pw_charge                               0.064374       20200
 strehar                                 0.052676           5
 inisym                                  0.050083           1
 fornlr                                  0.038159           5
 chggra                                  0.037396           5
 m_bcast_d                               0.031246          97
 fft_gq                                  0.028147          66
 i1                                      0.021713       10282
 hamilt_local                            0.020998       22326
 rsp                                     0.018707           5
 hip_hipfft_makeplan                     0.014947           6
 brgrid                                  0.012011           1
 truncate_high_frequency_w1              0.011490       77242
 w1_projall                              0.010413       11232
 fftbrc_mpi                              0.001700        1130
 fewald                                  0.001645           5
 rcp                                     0.001541           5
 vectorpot                               0.000304          67
 set_dd_magatom                          0.000293          76
 hip_init_hipblas                        0.000196           1
 fordep                                  0.000193           5
 shift_bands_between_low_high            0.000086         122
 hip_init_rocsolver                      0.000068           1
 crpa_reader                             0.000063           1
 posmap                                  0.000055           2
 potlok_metagga                          0.000051          71
 rotate_active_occupied_orbital          0.000008           5
 hip_hipfft_makeplans                    0.000006           3
 redis_pw_over_bands                     0.000001           5
 ---------------------------------------------------------------
  summed up times    277.758951187134     
 
 Accumulative profile
 ====================
 
             routine name                   CPU           calls
 ---------------------------------------------------------------
 total_time                            277.758951           1
 elmin                                 225.553055           5
 potlok                                 84.908446          71
 eddrmm                                 73.479283          61
 fft3d_mpi                              35.644138       75078
 eddav                                  31.129999           9
 fftbrc_mpi                             27.329902        1130
 fftbas_plan_mpi                        27.328202        1130
 force_and_stress                       25.913056           5
 i2                                     22.213503       10282
 hamiltmu                               20.026017       11646
 dfftw_execute                          17.234221        3345
 i3                                     17.154038       10282
 eddiag                                 14.378537          61
 ggaall_grid                            14.147595          76
 set_charge                             14.123462          66
 rpromu_acc                             13.400620       17212
 newband                                 9.692569       11786
 m_sumb_d                                9.470895        3712
 rpro_isp                                8.743972         130
 strnlr                                  8.356566           5
 setdij_                                 8.029511         202
 orthch                                  7.158948          66
 soft_charge                             7.030970          66
 raccmu_                                 6.424929       11646
 augmentation_charge                     6.297063          66
 brmix                                   6.086351          66
 w1_projall                              5.660140       11232
 map_backward                            5.272787        1186
 map_forward                             4.536154        1074
 fftwav_mpi                              3.806641      147388
 fft3d                                   3.645937      221336
 fftwav                                  3.592384      147388
 orth1                                   3.523522        4590
 map_gather                              3.448622         593
 choleski                                3.177859         132
 cnorma                                  3.039041      186909
 fornlr                                  2.778704           5
 phaser                                  2.697153         270
 racc0mu_acc                             2.675669       11646
 wavpre_noio                             2.626187           4
 pothar                                  2.602141          76
 map_scatter                             2.571790         537
 set_dd_paw                              2.328029          76
 setg0                                   2.248845          71
 rspher_all                              1.790774          66
 eccp                                    1.687104       87923
 kinhamil                                1.673318       73948
 m_bcast_z                               1.628901         147
 forhar                                  1.503079          10
 w1_gemv                                 1.450619      154800
 fftext_mpi                              1.391713       73948
 proall                                  1.378878           5
 lapack                                  1.317354        1364
 broyd                                   1.276923          66
 fordep                                  1.191574           5
 w1_copy                                 1.172832      154866
 stufak                                  1.056765           5
 w1_dot                                  1.009876       21917
 w1_dscal                                0.890051       95793
 overl_mu                                0.837382       11646
 forloc                                  0.752653           5
 lincom                                  0.725245         272
 fft_gq                                  0.614292          66
 hamilt_local                            0.613412       22326
 w1_daxpy                                0.586504       80772
 init_hip                                0.471523           1
 depsum                                  0.328593          66
 w1_gaxpy                                0.322617       42371
 i1                                      0.294618       10282
 overl1                                  0.275180       38700
 vhamil                                  0.258953       73948
 eccp_nl                                 0.257578      124606
 apply_precond                           0.224202       71821
 brget                                   0.204319        3154
 setup_precond                           0.164188       25620
 brsav                                   0.152522         859
 zhegv                                   0.151126       18469
 fewald                                  0.148996           5
 chggra                                  0.147705           5
 overl                                   0.107528       18614
 densta                                  0.107421          71
 strelo                                  0.087853           5
 brpre                                   0.083771          66
 strkin                                  0.082737           5
 ggemm                                   0.075458        1778
 pw_charge                               0.064374       20200
 strehar                                 0.052676           5
 inisym                                  0.050138           1
 m_bcast_d                               0.031246          97
 rsp                                     0.018707           5
 hip_hipfft_makeplans                    0.014953           3
 hip_hipfft_makeplan                     0.014947           6
 brgrid                                  0.012011           1
 truncate_high_frequency_w1              0.011490       77242
 rcp                                     0.001541           5
 vectorpot                               0.000304          67
 set_dd_magatom                          0.000293          76
 hip_init_hipblas                        0.000196           1
 shift_bands_between_low_high            0.000086         122
 hip_init_rocsolver                      0.000068           1
 crpa_reader                             0.000063           1
 posmap                                  0.000055           2
 potlok_metagga                          0.000051          71
 rotate_active_occupied_orbital          0.000008           5
 redis_pw_over_bands                     0.000001           5
 ---------------------------------------------------------------
 
Profiling took   0.395398  0.238441  0.002943  0.002793 seconds
Profiling took   0.302929 seconds
