<?xml version="1.0" encoding="ISO-8859-1"?>
<modeling>
 <generator>
  <i name="program" type="string">vasp </i>
  <i name="version" type="string">6.3.2  </i>
  <i name="subversion" type="string">27Jun22 (build Mar 15 2023 15:45:48) complex                          parallel </i>
  <i name="platform" type="string">LinuxIFC </i>
  <i name="date" type="string">2024 07 24 </i>
  <i name="time" type="string">09:11:51 </i>
 </generator>
 <incar>
  <i type="string" name="SYSTEM">ni3al</i>
  <i type="int" name="ISTART">     0</i>
  <i type="string" name="PREC">Accurate</i>
  <i type="string" name="ALGO">Fast</i>
  <i name="AMIN">      0.01000000</i>
  <i type="int" name="ICHARG">     2</i>
  <i type="int" name="NELM">   150</i>
  <i type="int" name="IBRION">     2</i>
  <i name="EDIFF">      0.00010000</i>
  <i name="EDIFFG">     -0.02000000</i>
  <i type="int" name="NSW">   300</i>
  <i type="int" name="ISIF">     2</i>
  <i name="ENCUT">    530.00000000</i>
  <i type="string" name="LREAL">Auto</i>
  <i type="int" name="ISMEAR">     0</i>
  <i name="SIGMA">      0.10000000</i>
  <i type="int" name="LMAXMIX">     4</i>
  <i type="logical" name="LWAVE"> F  </i>
  <i type="logical" name="LCHARG"> F  </i>
 </incar>
 <primitive_cell>
  <structure name="primitive_cell" >
   <crystal>
    <varray name="basis" >
     <v>      -4.80745100       0.00000000       0.00000000 </v>
     <v>       2.40372550      -4.16337450       0.00000000 </v>
     <v>       0.00000000       0.00000000      21.56058700 </v>
    </varray>
    <i name="volume">    431.53986849 </i>
    <varray name="rec_basis" >
     <v>      -0.20801044      -0.12009489       0.00000000 </v>
     <v>       0.00000000      -0.24018978       0.00000000 </v>
     <v>       0.00000000       0.00000000       0.04638093 </v>
    </varray>
   </crystal>
   <varray name="positions" >
    <v>       0.66666800       0.02716000       0.06215200 </v>
    <v>       0.30617400       0.00000000       0.16358100 </v>
    <v>       0.36049100       0.33333400       0.06215200 </v>
    <v>       0.97284300       0.63951000       0.06215200 </v>
    <v>       0.69382500       0.69382600       0.16358100 </v>
    <v>       1.00000000       0.30617600       0.16358100 </v>
    <v>       0.33333300       0.36049000       0.26500900 </v>
    <v>       0.02715700       0.66666600       0.26500900 </v>
    <v>       0.63950800       0.97284000       0.26500900 </v>
    <v>       0.33333300       0.66666600       0.20285800 </v>
    <v>       0.66666700       0.33333400       0.12430300 </v>
    <v>       0.00000000       0.00000000       0.10142900 </v>
    <v>       0.33333300       0.66666600       0.02287500 </v>
    <v>       0.66666700       0.33333400       0.30428600 </v>
    <v>       0.00000000       0.00000000       0.22573200 </v>
    <v>       0.66666700       0.33333400       0.00000000 </v>
   </varray>
  </structure>
  <varray name="primitive_index" >
   <v type="int" >        1 </v>
   <v type="int" >        4 </v>
   <v type="int" >        6 </v>
   <v type="int" >        7 </v>
   <v type="int" >        9 </v>
   <v type="int" >       11 </v>
   <v type="int" >       14 </v>
   <v type="int" >       16 </v>
   <v type="int" >       17 </v>
   <v type="int" >       38 </v>
   <v type="int" >       40 </v>
   <v type="int" >       41 </v>
   <v type="int" >       44 </v>
   <v type="int" >       46 </v>
   <v type="int" >       47 </v>
   <v type="int" >       50 </v>
  </varray>
 </primitive_cell>
 <kpoints>
  <generation param="Gamma">
   <v type="int" name="divisions">       3        4        1 </v>
   <v name="usershift">      0.00000000       0.00000000       0.00000000 </v>
   <v name="genvec1">      0.33333333       0.00000000       0.00000000 </v>
   <v name="genvec2">      0.00000000       0.25000000       0.00000000 </v>
   <v name="genvec3">      0.00000000       0.00000000       1.00000000 </v>
   <v name="shift">      0.00000000       0.00000000       0.00000000 </v>
  </generation>
  <varray name="kpointlist" >
   <v>       0.00000000       0.00000000       0.00000000 </v>
   <v>       0.33333333       0.00000000       0.00000000 </v>
   <v>       0.00000000       0.25000000       0.00000000 </v>
   <v>       0.33333333       0.25000000       0.00000000 </v>
   <v>      -0.33333333       0.25000000       0.00000000 </v>
   <v>       0.00000000       0.50000000       0.00000000 </v>
   <v>       0.33333333       0.50000000       0.00000000 </v>
  </varray>
  <varray name="weights" >
   <v>       0.08333333 </v>
   <v>       0.16666667 </v>
   <v>       0.16666667 </v>
   <v>       0.16666667 </v>
   <v>       0.16666667 </v>
   <v>       0.08333333 </v>
   <v>       0.16666667 </v>
  </varray>
 </kpoints>
 <parameters>
  <separator name="general" >
   <i type="string" name="SYSTEM">ni3al</i>
   <i type="logical" name="LCOMPAT"> F  </i>
  </separator>
  <separator name="electronic" >
   <i type="string" name="PREC">accura</i>
   <i name="ENMAX">    530.00000000</i>
   <i name="ENAUG">    605.39200000</i>
   <i name="EDIFF">      0.00010000</i>
   <i type="int" name="IALGO">    68</i>
   <i type="int" name="IWAVPR">    11</i>
   <i type="int" name="NBANDS">   183</i>
   <i type="int" name="NBANDSLOW">    -1</i>
   <i type="int" name="NBANDSHIGH">    -1</i>
   <i name="NELECT">    300.00000000</i>
   <i type="int" name="TURBO">     0</i>
   <i type="int" name="IRESTART">     0</i>
   <i type="int" name="NREBOOT">     0</i>
   <i type="int" name="NMIN">     0</i>
   <i name="EREF">      0.00000000</i>
   <separator name="electronic smearing" >
    <i type="int" name="ISMEAR">     0</i>
    <i name="SIGMA">      0.10000000</i>
    <i name="KSPACING">      0.50000000</i>
    <i type="logical" name="KGAMMA"> T  </i>
    <i type="logical" name="KBLOWUP"> T  </i>
   </separator>
   <separator name="electronic projectors" >
    <i type="logical" name="LREAL"> T  </i>
    <v name="ROPT">     -0.00025000     -0.00025000</v>
    <i type="int" name="LMAXPAW">  -100</i>
    <i type="int" name="LMAXMIX">     4</i>
    <i type="logical" name="NLSPLINE"> F  </i>
   </separator>
   <separator name="electronic startup" >
    <i type="int" name="ISTART">     0</i>
    <i type="int" name="ICHARG">     2</i>
    <i type="int" name="INIWAV">     1</i>
   </separator>
   <separator name="electronic spin" >
    <i type="int" name="ISPIN">     1</i>
    <i type="logical" name="LNONCOLLINEAR"> F  </i>
    <v name="MAGMOM">      1.00000000      1.00000000      1.00000000      1.00000000      1.00000000      1.00000000      1.00000000      1.00000000      1.00000000      1.00000000      1.00000000      1.00000000      1.00000000      1.00000000      1.00000000      1.00000000      1.00000000      1.00000000      1.00000000      1.00000000
      1.00000000      1.00000000      1.00000000      1.00000000      1.00000000      1.00000000      1.00000000      1.00000000      1.00000000      1.00000000      1.00000000      1.00000000      1.00000000      1.00000000      1.00000000      1.00000000      1.00000000      1.00000000      1.00000000      1.00000000
      1.00000000      1.00000000      1.00000000      1.00000000      1.00000000      1.00000000      1.00000000      1.00000000      1.00000000      1.00000000      1.00000000      1.00000000      1.00000000      1.00000000      1.00000000      1.00000000      1.00000000      1.00000000      1.00000000      1.00000000
      1.00000000      1.00000000      1.00000000      1.00000000</v>
    <i name="NUPDOWN">     -1.00000000</i>
    <i type="logical" name="LSORBIT"> F  </i>
    <v name="SAXIS">      0.00000000      0.00000000      1.00000000</v>
    <i type="logical" name="LSPIRAL"> F  </i>
    <v name="QSPIRAL">      0.00000000      0.00000000      0.00000000</v>
    <i type="logical" name="LZEROZ"> F  </i>
   </separator>
   <separator name="electronic exchange-correlation" >
    <i type="logical" name="LASPH"> F  </i>
    <i type="logical" name="LMETAGGA"> F  </i>
   </separator>
   <separator name="electronic convergence" >
    <i type="int" name="NELM">   150</i>
    <i type="int" name="NELMDL">    -5</i>
    <i type="int" name="NELMIN">     2</i>
    <i name="ENINI">    530.00000000</i>
    <separator name="electronic convergence detail" >
     <i type="logical" name="LDIAG"> T  </i>
     <i type="logical" name="LSUBROT"> F  </i>
     <i name="WEIMIN">      0.00100000</i>
     <i name="EBREAK">      0.00000014</i>
     <i name="DEPER">      0.30000000</i>
     <i type="int" name="NRMM">     4</i>
     <i name="TIME">      0.40000000</i>
    </separator>
   </separator>
   <separator name="electronic mixer" >
    <i name="AMIX">      0.40000000</i>
    <i name="BMIX">      1.00000000</i>
    <i name="AMIN">      0.01000000</i>
    <i name="AMIX_MAG">      1.60000000</i>
    <i name="BMIX_MAG">      1.00000000</i>
    <separator name="electronic mixer details" >
     <i type="int" name="IMIX">     4</i>
     <i type="logical" name="MIXFIRST"> F  </i>
     <i type="int" name="MAXMIX">   -45</i>
     <i name="WC">    100.00000000</i>
     <i type="int" name="INIMIX">     1</i>
     <i type="int" name="MIXPRE">     1</i>
     <i type="int" name="MREMOVE">     5</i>
    </separator>
   </separator>
   <separator name="electronic dipolcorrection" >
    <i type="logical" name="LDIPOL"> F  </i>
    <i type="logical" name="LMONO"> F  </i>
    <i type="int" name="IDIPOL">     0</i>
    <i name="EPSILON">      1.00000000</i>
    <v name="DIPOL">   -100.00000000   -100.00000000   -100.00000000</v>
    <i name="EFIELD">      0.00000000</i>
   </separator>
  </separator>
  <separator name="grids" >
   <i type="int" name="NGX">    72</i>
   <i type="int" name="NGY">    64</i>
   <i type="int" name="NGZ">   162</i>
   <i type="int" name="NGXF">   144</i>
   <i type="int" name="NGYF">   128</i>
   <i type="int" name="NGZF">   324</i>
   <i type="logical" name="ADDGRID"> F  </i>
  </separator>
  <separator name="ionic" >
   <i type="int" name="NSW">   300</i>
   <i type="int" name="IBRION">     2</i>
   <i type="int" name="MDALGO">     0</i>
   <i type="int" name="ISIF">     2</i>
   <i name="PSTRESS">      0.00000000</i>
   <i name="EDIFFG">     -0.02000000</i>
   <i type="int" name="NFREE">     1</i>
   <i name="POTIM">      0.50000000</i>
   <i name="SMASS">     -3.00000000</i>
   <i name="SCALEE">      1.00000000</i>
  </separator>
  <separator name="ionic md" >
   <i name="TEBEG">      0.00010000</i>
   <i name="TEEND">      0.00010000</i>
   <i type="int" name="NBLOCK">     1</i>
   <i type="int" name="KBLOCK">   300</i>
   <i type="int" name="NPACO">   256</i>
   <i name="APACO">     10.00000000</i>
  </separator>
  <separator name="symmetry" >
   <i type="int" name="ISYM">     2</i>
   <i name="SYMPREC">      0.00001000</i>
  </separator>
  <separator name="dos" >
   <i type="int" name="LORBIT">     0</i>
   <v name="RWIGS">     -1.00000000     -1.00000000</v>
   <i type="int" name="NEDOS">   301</i>
   <i name="EMIN">     10.00000000</i>
   <i name="EMAX">    -10.00000000</i>
   <i name="EFERMI">      0.00000000</i>
  </separator>
  <separator name="writing" >
   <i type="int" name="NWRITE">     2</i>
   <i type="logical" name="LWAVE"> F  </i>
   <i type="logical" name="LDOWNSAMPLE"> F  </i>
   <i type="logical" name="LCHARG"> F  </i>
   <i type="logical" name="LPARD"> F  </i>
   <i type="logical" name="LVTOT"> F  </i>
   <i type="logical" name="LVHAR"> F  </i>
   <i type="logical" name="LELF"> F  </i>
   <i type="logical" name="LOPTICS"> F  </i>
   <v name="STM">      0.00000000      0.00000000      0.00000000      0.00000000      0.00000000      0.00000000      0.00000000</v>
  </separator>
  <separator name="performance" >
   <i type="int" name="NPAR">     1</i>
   <i type="int" name="NSIM">     4</i>
   <i type="int" name="NBLK">    -1</i>
   <i type="logical" name="LPLANE"> T  </i>
   <i type="logical" name="LSCALAPACK"> T  </i>
   <i type="logical" name="LSCAAWARE"> F  </i>
   <i type="logical" name="LSCALU"> F  </i>
   <i type="logical" name="LASYNC"> F  </i>
   <i type="logical" name="LORBITALREAL"> F  </i>
  </separator>
  <separator name="miscellaneous" >
   <i type="int" name="IDIOT">     3</i>
   <i type="int" name="PHON_NSTRUCT">    -1</i>
   <i type="logical" name="LMUSIC"> F  </i>
   <v name="POMASS">     16.00000000     26.98100000</v>
   <v name="DARWINR">      0.00000000      0.00000000</v>
   <v name="DARWINV">      1.00000000      1.00000000</v>
   <i type="logical" name="LCORR"> T  </i>
  </separator>
  <i type="logical" name="GGA_COMPAT"> T  </i>
  <i type="logical" name="LBERRY"> F  </i>
  <i type="int" name="ICORELEVEL">     0</i>
  <i type="logical" name="LDAU"> F  </i>
  <i type="int" name="I_CONSTRAINED_M">     0</i>
  <separator name="electronic exchange-correlation" >
   <i type="string" name="GGA">--</i>
   <i type="int" name="VOSKOWN">     0</i>
   <i type="logical" name="LHFCALC"> F  </i>
   <i type="string" name="PRECFOCK"></i>
   <i type="logical" name="LSYMGRAD"> F  </i>
   <i type="logical" name="LHFONE"> F  </i>
   <i type="logical" name="LRHFCALC"> F  </i>
   <i type="logical" name="LTHOMAS"> F  </i>
   <i type="logical" name="LMODELHF"> F  </i>
   <i type="logical" name="LFOCKACE"> F  </i>
   <i name="ENCUT4O">     -1.00000000</i>
   <i type="int" name="EXXOEP">     0</i>
   <i type="int" name="FOURORBIT">     0</i>
   <i name="AEXX">      0.00000000</i>
   <i name="HFALPHA">      0.00000000</i>
   <i name="MCALPHA">      0.00000000</i>
   <i name="ALDAX">      1.00000000</i>
   <i name="AGGAX">      1.00000000</i>
   <i name="ALDAC">      1.00000000</i>
   <i name="AGGAC">      1.00000000</i>
   <i type="int" name="NKREDX">     1</i>
   <i type="int" name="NKREDY">     1</i>
   <i type="int" name="NKREDZ">     1</i>
   <i type="logical" name="SHIFTRED"> F  </i>
   <i type="logical" name="ODDONLY"> F  </i>
   <i type="logical" name="EVENONLY"> F  </i>
   <i type="int" name="LMAXFOCK">     0</i>
   <i type="int" name="NMAXFOCKAE">     0</i>
   <i type="logical" name="LFOCKAEDFT"> F  </i>
   <i name="HFSCREEN">      0.00000000</i>
   <i name="HFSCREENC">      0.00000000</i>
   <i type="int" name="NBANDSGWLOW">     0</i>
  </separator>
  <separator name="vdW DFT" >
   <i type="logical" name="LUSE_VDW"> F  </i>
   <i name="Zab_VDW">     -0.84910000</i>
   <i name="PARAM1">      0.12340000</i>
   <i name="PARAM2">      1.00000000</i>
   <i name="PARAM3">      0.00000000</i>
  </separator>
  <separator name="model GW" >
   <i type="int" name="MODEL_GW">     0</i>
   <i name="MODEL_EPS0">     16.18274507</i>
   <i name="MODEL_ALPHA">      1.00000000</i>
  </separator>
  <separator name="linear response parameters" >
   <i type="logical" name="LEPSILON"> F  </i>
   <i type="logical" name="LRPA"> F  </i>
   <i type="logical" name="LNABLA"> F  </i>
   <i type="logical" name="LVEL"> F  </i>
   <i name="CSHIFT">      0.10000000</i>
   <i name="OMEGAMAX">     -1.00000000</i>
   <i name="DEG_THRESHOLD">      0.00200000</i>
   <i name="RTIME">     -0.10000000</i>
   <i name="WPLASMAI">      0.00000000</i>
   <v name="DFIELD">      0.00000000      0.00000000      0.00000000</v>
   <v name="WPLASMA">      0.00000000      0.00000000      0.00000000      0.00000000      0.00000000      0.00000000      0.00000000      0.00000000      0.00000000</v>
  </separator>
  <separator name="orbital magnetization" >
   <i type="logical" name="NUCIND"> F  </i>
   <v name="MAGPOS">      0.00000000      0.00000000      0.00000000</v>
   <i type="logical" name="LNICSALL"> T  </i>
   <i type="logical" name="ORBITALMAG"> F  </i>
   <i type="logical" name="LMAGBLOCH"> F  </i>
   <i type="logical" name="LCHIMAG"> F  </i>
   <i type="logical" name="LGAUGE"> T  </i>
   <i type="int" name="MAGATOM">     0</i>
   <v name="MAGDIPOL">      0.00000000      0.00000000      0.00000000</v>
   <v name="AVECCONST">      0.00000000      0.00000000      0.00000000</v>
  </separator>
  <separator name="response functions" >
   <i type="logical" name="LFINITE_TEMPERATURE"> F  </i>
   <i type="logical" name="LADDER"> F  </i>
   <i type="logical" name="LRPAFORCE"> F  </i>
   <i type="logical" name="LFXC"> F  </i>
   <i type="logical" name="LHARTREE"> T  </i>
   <i type="int" name="IBSE">     0</i>
   <v type="int" name="KPOINT">    -1     0     0     0</v>
   <i type="logical" name="LTCTC"> F  </i>
   <i type="logical" name="LTCTE"> F  </i>
   <i type="logical" name="LTETE"> F  </i>
   <i type="logical" name="LTRIPLET"> F  </i>
   <i type="logical" name="LFXCEPS"> F  </i>
   <i type="logical" name="LFXHEG"> F  </i>
   <i type="int" name="NATURALO">     2</i>
   <i type="logical" name="LHOLEGF"> F  </i>
   <i type="logical" name="L2ORDER"> F  </i>
   <i type="logical" name="LDMP1"> F  </i>
   <i type="logical" name="LMP2LT"> F  </i>
   <i type="logical" name="LSMP2LT"> F  </i>
   <i type="logical" name="LGWLF"> F  </i>
   <i name="ENCUTGW">     -2.00000000</i>
   <i name="ENCUTGWSOFT">     -2.00000000</i>
   <i name="ENCUTLF">     -1.00000000</i>
   <i type="logical" name="LESF_SPLINES"> F  </i>
   <i type="int" name="LMAXMP2">    -1</i>
   <i name="SCISSOR">      0.00000000</i>
   <i type="int" name="NOMEGA">     0</i>
   <i type="int" name="NOMEGAR">     0</i>
   <i type="int" name="NBANDSGW">    -1</i>
   <i type="int" name="NBANDSO">    -1</i>
   <i type="int" name="NBANDSV">    -1</i>
   <i type="int" name="NELMGW">     1</i>
   <i type="int" name="NELMHF">     1</i>
   <i type="int" name="DIM">     3</i>
   <i type="int" name="IESPILON">     4</i>
   <i type="int" name="ANTIRES">     0</i>
   <i name="OMEGAMAX">    -30.00000000</i>
   <i name="OMEGAMIN">    -30.00000000</i>
   <i name="OMEGATL">   -200.00000000</i>
   <i type="int" name="OMEGAGRID">     0</i>
   <i name="CSHIFT">     -0.10000000</i>
   <i type="logical" name="LSELFENERGY"> F  </i>
   <i type="logical" name="LSPECTRAL"> F  </i>
   <i type="logical" name="LSPECTRALGW"> F  </i>
   <i type="logical" name="LSINGLES"> F  </i>
   <i type="logical" name="LFERMIGW"> F  </i>
   <i type="logical" name="ODDONLYGW"> F  </i>
   <i type="logical" name="EVENONLYGW"> F  </i>
   <i type="int" name="NKREDLFX">     1</i>
   <i type="int" name="NKREDLFY">     1</i>
   <i type="int" name="NKREDLFZ">     1</i>
   <i type="int" name="MAXMEM">  2800</i>
   <i type="int" name="TELESCOPE">     0</i>
   <i type="int" name="NTAUPAR">    -1</i>
   <i type="int" name="NOMEGAPAR">    -1</i>
   <i name="DAMP_NEWTON">      0.80000001</i>
   <i name="LAMBDA">      1.00000000</i>
  </separator>
  <separator name="External order field" >
   <i name="OFIELD_KAPPA">      0.00000000</i>
   <v name="OFIELD_K">      0.00000000      0.00000000      0.00000000</v>
   <i name="OFIELD_Q6_NEAR">      0.00000000</i>
   <i name="OFIELD_Q6_FAR">      0.00000000</i>
   <i name="OFIELD_A">      0.00000000</i>
  </separator>
  <separator name="optional k-points parameters" >
   <i type="int" name="KPOINTS_OPT_MODE">     1</i>
   <i type="logical" name="LKPOINTS_OPT"> F  </i>
  </separator>
  <separator name="solvation model" >
   <i type="logical" name="LSOL"> F  </i>
  </separator>
 </parameters>
 <atominfo>
  <atoms>      64 </atoms>
  <types>       2 </types>
  <array name="atoms" >
   <dimension dim="1">ion</dimension>
   <field type="string">element</field>
   <field type="int">atomtype</field>
   <set>
    <rc><c>O </c><c>   1</c></rc>
    <rc><c>O </c><c>   1</c></rc>
    <rc><c>O </c><c>   1</c></rc>
    <rc><c>O </c><c>   1</c></rc>
    <rc><c>O </c><c>   1</c></rc>
    <rc><c>O </c><c>   1</c></rc>
    <rc><c>O </c><c>   1</c></rc>
    <rc><c>O </c><c>   1</c></rc>
    <rc><c>O </c><c>   1</c></rc>
    <rc><c>O </c><c>   1</c></rc>
    <rc><c>O </c><c>   1</c></rc>
    <rc><c>O </c><c>   1</c></rc>
    <rc><c>O </c><c>   1</c></rc>
    <rc><c>O </c><c>   1</c></rc>
    <rc><c>O </c><c>   1</c></rc>
    <rc><c>O </c><c>   1</c></rc>
    <rc><c>O </c><c>   1</c></rc>
    <rc><c>O </c><c>   1</c></rc>
    <rc><c>O </c><c>   1</c></rc>
    <rc><c>O </c><c>   1</c></rc>
    <rc><c>O </c><c>   1</c></rc>
    <rc><c>O </c><c>   1</c></rc>
    <rc><c>O </c><c>   1</c></rc>
    <rc><c>O </c><c>   1</c></rc>
    <rc><c>O </c><c>   1</c></rc>
    <rc><c>O </c><c>   1</c></rc>
    <rc><c>O </c><c>   1</c></rc>
    <rc><c>O </c><c>   1</c></rc>
    <rc><c>O </c><c>   1</c></rc>
    <rc><c>O </c><c>   1</c></rc>
    <rc><c>O </c><c>   1</c></rc>
    <rc><c>O </c><c>   1</c></rc>
    <rc><c>O </c><c>   1</c></rc>
    <rc><c>O </c><c>   1</c></rc>
    <rc><c>O </c><c>   1</c></rc>
    <rc><c>O </c><c>   1</c></rc>
    <rc><c>Al</c><c>   2</c></rc>
    <rc><c>Al</c><c>   2</c></rc>
    <rc><c>Al</c><c>   2</c></rc>
    <rc><c>Al</c><c>   2</c></rc>
    <rc><c>Al</c><c>   2</c></rc>
    <rc><c>Al</c><c>   2</c></rc>
    <rc><c>Al</c><c>   2</c></rc>
    <rc><c>Al</c><c>   2</c></rc>
    <rc><c>Al</c><c>   2</c></rc>
    <rc><c>Al</c><c>   2</c></rc>
    <rc><c>Al</c><c>   2</c></rc>
    <rc><c>Al</c><c>   2</c></rc>
    <rc><c>Al</c><c>   2</c></rc>
    <rc><c>Al</c><c>   2</c></rc>
    <rc><c>Al</c><c>   2</c></rc>
    <rc><c>Al</c><c>   2</c></rc>
    <rc><c>Al</c><c>   2</c></rc>
    <rc><c>Al</c><c>   2</c></rc>
    <rc><c>Al</c><c>   2</c></rc>
    <rc><c>Al</c><c>   2</c></rc>
    <rc><c>Al</c><c>   2</c></rc>
    <rc><c>Al</c><c>   2</c></rc>
    <rc><c>Al</c><c>   2</c></rc>
    <rc><c>Al</c><c>   2</c></rc>
    <rc><c>Al</c><c>   2</c></rc>
    <rc><c>Al</c><c>   2</c></rc>
    <rc><c>Al</c><c>   2</c></rc>
    <rc><c>Al</c><c>   2</c></rc>
   </set>
  </array>
  <array name="atomtypes" >
   <dimension dim="1">type</dimension>
   <field type="int">atomspertype</field>
   <field type="string">element</field>
   <field>mass</field>
   <field>valence</field>
   <field type="string">pseudopotential</field>
   <set>
    <rc><c>  36</c><c>O </c><c>     16.00000000</c><c>      6.00000000</c><c>  PAW_PBE O 08Apr2002                   </c></rc>
    <rc><c>  28</c><c>Al</c><c>     26.98100000</c><c>      3.00000000</c><c>  PAW_PBE Al 04Jan2001                  </c></rc>
   </set>
  </array>
 </atominfo>
 <structure name="initialpos" >
  <crystal>
   <varray name="basis" >
    <v>       9.61490200       0.00000000       0.00000000 </v>
    <v>       0.00000000       8.32674900       0.00000000 </v>
    <v>       0.00000000       0.00000000      21.56058700 </v>
   </varray>
   <i name="volume">   1726.15947396 </i>
   <varray name="rec_basis" >
    <v>       0.10400522       0.00000000       0.00000000 </v>
    <v>       0.00000000       0.12009489       0.00000000 </v>
    <v>       0.00000000       0.00000000       0.04638093 </v>
   </varray>
  </crystal>
  <varray name="positions" >
   <v>       0.17345600       0.98642000       0.06215200 </v>
   <v>       0.42345600       0.48642000       0.06215200 </v>
   <v>       0.09691300       0.50000000       0.16358100 </v>
   <v>       0.34691300       0.00000000       0.16358100 </v>
   <v>       0.15308800       0.33333300       0.06215200 </v>
   <v>       0.40308800       0.83333300       0.06215200 </v>
   <v>       0.17345600       0.68024500       0.06215200 </v>
   <v>       0.42345600       0.18024600       0.06215200 </v>
   <v>       0.07654400       0.15308700       0.16358100 </v>
   <v>       0.32654400       0.65308700       0.16358100 </v>
   <v>       0.07654400       0.84691200       0.16358100 </v>
   <v>       0.32654400       0.34691200       0.16358100 </v>
   <v>       0.17345600       0.31975500       0.26500900 </v>
   <v>       0.42345600       0.81975500       0.26500900 </v>
   <v>       0.15308700       0.66666700       0.26500900 </v>
   <v>       0.40308800       0.16666700       0.26500900 </v>
   <v>       0.17345600       0.01358000       0.26500900 </v>
   <v>       0.42345600       0.51357900       0.26500900 </v>
   <v>       0.67345600       0.98642000       0.06215200 </v>
   <v>       0.92345600       0.48642000       0.06215200 </v>
   <v>       0.59691300       0.50000000       0.16358100 </v>
   <v>       0.84691300       0.00000000       0.16358100 </v>
   <v>       0.65308800       0.33333300       0.06215200 </v>
   <v>       0.90308800       0.83333300       0.06215200 </v>
   <v>       0.67345600       0.68024500       0.06215200 </v>
   <v>       0.92345600       0.18024500       0.06215200 </v>
   <v>       0.57654400       0.15308700       0.16358100 </v>
   <v>       0.82654400       0.65308700       0.16358100 </v>
   <v>       0.57654400       0.84691200       0.16358100 </v>
   <v>       0.82654400       0.34691200       0.16358100 </v>
   <v>       0.67345600       0.31975500       0.26500900 </v>
   <v>       0.92345600       0.81975500       0.26500900 </v>
   <v>       0.65308700       0.66666700       0.26500900 </v>
   <v>       0.90308800       0.16666700       0.26500900 </v>
   <v>       0.67345600       0.01357900       0.26500900 </v>
   <v>       0.92345600       0.51358000       0.26500900 </v>
   <v>       0.00000000       0.66666700       0.20285800 </v>
   <v>       0.25000000       0.16666700       0.20285800 </v>
   <v>       0.00000000       0.33333300       0.12430300 </v>
   <v>       0.25000000       0.83333300       0.12430300 </v>
   <v>       0.00000000       0.00000000       0.10142900 </v>
   <v>       0.25000000       0.50000000       0.10142900 </v>
   <v>       0.00000000       0.66666700       0.02287500 </v>
   <v>       0.25000000       0.16666700       0.02287500 </v>
   <v>       0.00000000       0.33333300       0.30428600 </v>
   <v>       0.25000000       0.83333300       0.30428600 </v>
   <v>       0.00000000       0.00000000       0.22573200 </v>
   <v>       0.25000000       0.50000000       0.22573200 </v>
   <v>       0.00000000       0.33333300       0.00000000 </v>
   <v>       0.25000000       0.83333300       0.00000000 </v>
   <v>       0.50000000       0.66666700       0.20285800 </v>
   <v>       0.75000000       0.16666700       0.20285800 </v>
   <v>       0.50000000       0.33333300       0.12430300 </v>
   <v>       0.75000000       0.83333300       0.12430300 </v>
   <v>       0.50000000       0.00000000       0.10142900 </v>
   <v>       0.75000000       0.50000000       0.10142900 </v>
   <v>       0.50000000       0.66666700       0.02287500 </v>
   <v>       0.75000000       0.16666700       0.02287500 </v>
   <v>       0.50000000       0.33333300       0.30428600 </v>
   <v>       0.75000000       0.83333300       0.30428600 </v>
   <v>       0.50000000       0.00000000       0.22573200 </v>
   <v>       0.75000000       0.50000000       0.22573200 </v>
   <v>       0.50000000       0.33333300       0.00000000 </v>
   <v>       0.75000000       0.83333300       0.00000000 </v>
  </varray>
  <varray name="selective"  type="logical" >
   <v type="logical" >  F  F  F </v>
   <v type="logical" >  F  F  F </v>
   <v type="logical" >  F  F  F </v>
   <v type="logical" >  F  F  F </v>
   <v type="logical" >  F  F  F </v>
   <v type="logical" >  F  F  F </v>
   <v type="logical" >  F  F  F </v>
   <v type="logical" >  F  F  F </v>
   <v type="logical" >  F  F  F </v>
   <v type="logical" >  F  F  F </v>
   <v type="logical" >  F  F  F </v>
   <v type="logical" >  F  F  F </v>
   <v type="logical" >  F  F  F </v>
   <v type="logical" >  F  F  F </v>
   <v type="logical" >  F  F  F </v>
   <v type="logical" >  F  F  F </v>
   <v type="logical" >  F  F  F </v>
   <v type="logical" >  F  F  F </v>
   <v type="logical" >  F  F  F </v>
   <v type="logical" >  F  F  F </v>
   <v type="logical" >  F  F  F </v>
   <v type="logical" >  F  F  F </v>
   <v type="logical" >  F  F  F </v>
   <v type="logical" >  F  F  F </v>
   <v type="logical" >  F  F  F </v>
   <v type="logical" >  F  F  F </v>
   <v type="logical" >  F  F  F </v>
   <v type="logical" >  F  F  F </v>
   <v type="logical" >  F  F  F </v>
   <v type="logical" >  F  F  F </v>
   <v type="logical" >  F  F  F </v>
   <v type="logical" >  F  F  F </v>
   <v type="logical" >  F  F  F </v>
   <v type="logical" >  F  F  F </v>
   <v type="logical" >  F  F  F </v>
   <v type="logical" >  F  F  F </v>
   <v type="logical" >  F  F  F </v>
   <v type="logical" >  F  F  F </v>
   <v type="logical" >  F  F  F </v>
   <v type="logical" >  F  F  F </v>
   <v type="logical" >  F  F  F </v>
   <v type="logical" >  F  F  F </v>
   <v type="logical" >  F  F  F </v>
   <v type="logical" >  F  F  F </v>
   <v type="logical" >  T  T  T </v>
   <v type="logical" >  T  T  T </v>
   <v type="logical" >  F  F  F </v>
   <v type="logical" >  F  F  F </v>
   <v type="logical" >  F  F  F </v>
   <v type="logical" >  F  F  F </v>
   <v type="logical" >  F  F  F </v>
   <v type="logical" >  F  F  F </v>
   <v type="logical" >  F  F  F </v>
   <v type="logical" >  F  F  F </v>
   <v type="logical" >  F  F  F </v>
   <v type="logical" >  F  F  F </v>
   <v type="logical" >  F  F  F </v>
   <v type="logical" >  F  F  F </v>
   <v type="logical" >  T  T  T </v>
   <v type="logical" >  T  T  T </v>
   <v type="logical" >  F  F  F </v>
   <v type="logical" >  F  F  F </v>
   <v type="logical" >  F  F  F </v>
   <v type="logical" >  F  F  F </v>
  </varray>
  <nose>
   <v>      -3.00000000       0.00000000       0.00010000       0.00010000 </v>
  </nose>
 </structure>
 <calculation>
  <scstep>
   <time name="dav">   22.39    3.26</time>
   <time name="total">   31.45    4.62</time>
   <energy>
    <i name="alphaZ">    139.45024009 </i>
    <i name="ewald">  72655.66321455 </i>
    <i name="hartreedc"> -87627.70181200 </i>
    <i name="XCdc">    274.90723545 </i>
    <i name="pawpsdc">  14329.38556758 </i>
    <i name="pawaedc"> -13499.41069321 </i>
    <i name="eentropy">     -0.06945891 </i>
    <i name="bandstr">   -450.51594360 </i>
    <i name="atom">  17063.98418215 </i>
    <i name="e_fr_energy">   2885.69253210 </i>
    <i name="e_wo_entrp">   2885.76199101 </i>
    <i name="e_0_energy">   2885.72726156 </i>
   </energy>
  </scstep>
  <scstep>
   <time name="dav">   27.79    3.98</time>
   <time name="total">   27.80    3.98</time>
   <energy>
    <i name="e_fr_energy">     26.28388012 </i>
    <i name="e_wo_entrp">     26.31357302 </i>
    <i name="e_0_energy">     26.29872657 </i>
   </energy>
  </scstep>
  <scstep>
   <time name="dav">   24.32    3.49</time>
   <time name="total">   24.33    3.49</time>
   <energy>
    <i name="e_fr_energy">   -486.69867543 </i>
    <i name="e_wo_entrp">   -486.65486424 </i>
    <i name="e_0_energy">   -486.67676983 </i>
   </energy>
  </scstep>
  <scstep>
   <time name="dav">   24.24    3.48</time>
   <time name="total">   24.25    3.49</time>
   <energy>
    <i name="e_fr_energy">   -502.37273386 </i>
    <i name="e_wo_entrp">   -502.32799290 </i>
    <i name="e_0_energy">   -502.35036338 </i>
   </energy>
  </scstep>
  <scstep>
   <time name="dav">   24.97    3.60</time>
   <time name="total">   27.10    3.90</time>
   <energy>
    <i name="e_fr_energy">   -502.80945195 </i>
    <i name="e_wo_entrp">   -502.76474664 </i>
    <i name="e_0_energy">   -502.78709930 </i>
   </energy>
  </scstep>
  <scstep>
   <time name="diag">    1.64    0.24</time>
   <time name="diis">    3.36    1.23</time>
   <time name="orth">    0.10    0.05</time>
   <time name="total">   15.27    3.11</time>
   <energy>
    <i name="e_fr_energy">   -438.71796369 </i>
    <i name="e_wo_entrp">   -438.65720570 </i>
    <i name="e_0_energy">   -438.68758469 </i>
   </energy>
  </scstep>
  <scstep>
   <time name="diag">    1.65    0.24</time>
   <time name="diis">    3.49    1.31</time>
   <time name="orth">    0.10    0.05</time>
   <time name="total">   15.43    3.20</time>
   <energy>
    <i name="e_fr_energy">   -438.13596108 </i>
    <i name="e_wo_entrp">   -438.06979273 </i>
    <i name="e_0_energy">   -438.10287690 </i>
   </energy>
  </scstep>
  <scstep>
   <time name="diag">    1.65    0.24</time>
   <time name="diis">    3.51    1.32</time>
   <time name="orth">    0.10    0.05</time>
   <time name="total">   15.73    3.25</time>
   <energy>
    <i name="e_fr_energy">   -436.53617660 </i>
    <i name="e_wo_entrp">   -436.46805586 </i>
    <i name="e_0_energy">   -436.50211623 </i>
   </energy>
  </scstep>
  <scstep>
   <time name="diag">    1.64    0.24</time>
   <time name="diis">    3.85    1.50</time>
   <time name="orth">    0.10    0.05</time>
   <time name="total">   15.94    3.41</time>
   <energy>
    <i name="e_fr_energy">   -436.37166840 </i>
    <i name="e_wo_entrp">   -436.30601763 </i>
    <i name="e_0_energy">   -436.33884301 </i>
   </energy>
  </scstep>
  <scstep>
   <time name="diag">    1.65    0.24</time>
   <time name="diis">    3.80    1.47</time>
   <time name="orth">    0.10    0.05</time>
   <time name="total">   15.77    3.36</time>
   <energy>
    <i name="e_fr_energy">   -436.25655059 </i>
    <i name="e_wo_entrp">   -436.18691716 </i>
    <i name="e_0_energy">   -436.22173387 </i>
   </energy>
  </scstep>
  <scstep>
   <time name="diag">    1.66    0.24</time>
   <time name="diis">    3.52    1.32</time>
   <time name="orth">    0.10    0.05</time>
   <time name="total">   15.59    3.22</time>
   <energy>
    <i name="e_fr_energy">   -436.09585863 </i>
    <i name="e_wo_entrp">   -436.02646953 </i>
    <i name="e_0_energy">   -436.06116408 </i>
   </energy>
  </scstep>
  <scstep>
   <time name="diag">    1.65    0.24</time>
   <time name="diis">    3.52    1.32</time>
   <time name="orth">    0.10    0.05</time>
   <time name="total">   15.61    3.23</time>
   <energy>
    <i name="e_fr_energy">   -436.02149044 </i>
    <i name="e_wo_entrp">   -435.95149340 </i>
    <i name="e_0_energy">   -435.98649192 </i>
   </energy>
  </scstep>
  <scstep>
   <time name="diag">    1.65    0.24</time>
   <time name="diis">    3.75    1.45</time>
   <time name="orth">    0.10    0.05</time>
   <time name="total">   15.91    3.36</time>
   <energy>
    <i name="e_fr_energy">   -435.89978192 </i>
    <i name="e_wo_entrp">   -435.82926954 </i>
    <i name="e_0_energy">   -435.86452573 </i>
   </energy>
  </scstep>
  <scstep>
   <time name="diag">    1.64    0.24</time>
   <time name="diis">    3.76    1.45</time>
   <time name="orth">    0.10    0.05</time>
   <time name="total">   15.92    3.36</time>
   <energy>
    <i name="e_fr_energy">   -435.82484177 </i>
    <i name="e_wo_entrp">   -435.75481307 </i>
    <i name="e_0_energy">   -435.78982742 </i>
   </energy>
  </scstep>
  <scstep>
   <time name="diag">    1.63    0.23</time>
   <time name="diis">    3.62    1.38</time>
   <time name="orth">    0.10    0.05</time>
   <time name="total">   15.48    3.25</time>
   <energy>
    <i name="e_fr_energy">   -435.75960653 </i>
    <i name="e_wo_entrp">   -435.68859913 </i>
    <i name="e_0_energy">   -435.72410283 </i>
   </energy>
  </scstep>
  <scstep>
   <time name="diag">    1.64    0.24</time>
   <time name="diis">    3.86    1.50</time>
   <time name="orth">    0.10    0.05</time>
   <time name="total">   15.65    3.36</time>
   <energy>
    <i name="e_fr_energy">   -435.76365375 </i>
    <i name="e_wo_entrp">   -435.69360795 </i>
    <i name="e_0_energy">   -435.72863085 </i>
   </energy>
  </scstep>
  <scstep>
   <time name="diag">    1.65    0.24</time>
   <time name="diis">    3.63    1.39</time>
   <time name="orth">    0.10    0.05</time>
   <time name="total">   15.49    3.27</time>
   <energy>
    <i name="e_fr_energy">   -435.77760016 </i>
    <i name="e_wo_entrp">   -435.70666784 </i>
    <i name="e_0_energy">   -435.74213400 </i>
   </energy>
  </scstep>
  <scstep>
   <time name="diag">    1.64    0.24</time>
   <time name="diis">    3.87    1.49</time>
   <time name="orth">    0.10    0.05</time>
   <time name="total">   15.81    3.38</time>
   <energy>
    <i name="e_fr_energy">   -435.79692211 </i>
    <i name="e_wo_entrp">   -435.72659799 </i>
    <i name="e_0_energy">   -435.76176005 </i>
   </energy>
  </scstep>
  <scstep>
   <time name="diag">    1.63    0.23</time>
   <time name="diis">    3.60    1.36</time>
   <time name="orth">    0.10    0.05</time>
   <time name="total">   15.52    3.25</time>
   <energy>
    <i name="e_fr_energy">   -435.80797650 </i>
    <i name="e_wo_entrp">   -435.73763273 </i>
    <i name="e_0_energy">   -435.77280462 </i>
   </energy>
  </scstep>
  <scstep>
   <time name="diag">    1.65    0.24</time>
   <time name="diis">    3.66    1.40</time>
   <time name="orth">    0.10    0.05</time>
   <time name="total">   15.76    3.31</time>
   <energy>
    <i name="e_fr_energy">   -435.81322088 </i>
    <i name="e_wo_entrp">   -435.74289553 </i>
    <i name="e_0_energy">   -435.77805820 </i>
   </energy>
  </scstep>
  <scstep>
   <time name="diag">    1.65    0.24</time>
   <time name="diis">    3.53    1.33</time>
   <time name="orth">    0.10    0.05</time>
   <time name="total">   15.93    3.28</time>
   <energy>
    <i name="e_fr_energy">   -435.81599734 </i>
    <i name="e_wo_entrp">   -435.74581158 </i>
    <i name="e_0_energy">   -435.78090446 </i>
   </energy>
  </scstep>
  <scstep>
   <time name="diag">    1.65    0.24</time>
   <time name="diis">    2.90    1.01</time>
   <time name="orth">    0.10    0.05</time>
   <time name="total">   14.92    2.90</time>
   <energy>
    <i name="e_fr_energy">   -435.81668563 </i>
    <i name="e_wo_entrp">   -435.74649044 </i>
    <i name="e_0_energy">   -435.78158803 </i>
   </energy>
  </scstep>
  <scstep>
   <time name="diag">    1.64    0.23</time>
   <time name="diis">    2.69    0.91</time>
   <time name="orth">    0.10    0.05</time>
   <time name="total">   14.84    2.82</time>
   <energy>
    <i name="e_fr_energy">   -435.81749409 </i>
    <i name="e_wo_entrp">   -435.74731838 </i>
    <i name="e_0_energy">   -435.78240624 </i>
   </energy>
  </scstep>
  <scstep>
   <time name="diag">    1.61    0.24</time>
   <time name="diis">    2.63    0.88</time>
   <time name="orth">    0.10    0.05</time>
   <time name="total">   15.19    2.86</time>
   <energy>
    <i name="e_fr_energy">   -435.81771263 </i>
    <i name="e_wo_entrp">   -435.74755208 </i>
    <i name="e_0_energy">   -435.78263235 </i>
   </energy>
  </scstep>
  <scstep>
   <time name="diag">    1.64    0.24</time>
   <time name="diis">    2.53    0.83</time>
   <time name="orth">    0.10    0.05</time>
   <time name="total">   14.71    2.75</time>
   <energy>
    <i name="e_fr_energy">   -435.81790840 </i>
    <i name="e_wo_entrp">   -435.74773328 </i>
    <i name="e_0_energy">   -435.78282084 </i>
   </energy>
  </scstep>
  <scstep>
   <time name="diag">    1.63    0.23</time>
   <time name="diis">    2.16    0.65</time>
   <time name="orth">    0.10    0.05</time>
   <time name="total">   12.37    2.21</time>
   <energy>
    <i name="alphaZ">    139.45024009 </i>
    <i name="ewald">  72655.66321455 </i>
    <i name="hartreedc"> -89034.30344717 </i>
    <i name="XCdc">    324.70175707 </i>
    <i name="pawpsdc">  23246.20393551 </i>
    <i name="pawaedc"> -22426.10380316 </i>
    <i name="eentropy">     -0.07016938 </i>
    <i name="bandstr">  -2405.34387235 </i>
    <i name="atom">  17063.98418215 </i>
    <i name="e_fr_energy">   -435.81796268 </i>
    <i name="e_wo_entrp">   -435.74779330 </i>
    <i name="e_0_energy">   -435.78287799 </i>
   </energy>
  </scstep>
  <structure>
   <crystal>
    <varray name="basis" >
     <v>       9.61490200       0.00000000       0.00000000 </v>
     <v>       0.00000000       8.32674900       0.00000000 </v>
     <v>       0.00000000       0.00000000      21.56058700 </v>
    </varray>
    <i name="volume">   1726.15947396 </i>
    <varray name="rec_basis" >
     <v>       0.10400522       0.00000000       0.00000000 </v>
     <v>       0.00000000       0.12009489       0.00000000 </v>
     <v>       0.00000000       0.00000000       0.04638093 </v>
    </varray>
   </crystal>
   <varray name="positions" >
    <v>       0.17345600       0.98642000       0.06215200 </v>
    <v>       0.42345600       0.48642000       0.06215200 </v>
    <v>       0.09691300       0.50000000       0.16358100 </v>
    <v>       0.34691300       0.00000000       0.16358100 </v>
    <v>       0.15308800       0.33333300       0.06215200 </v>
    <v>       0.40308800       0.83333300       0.06215200 </v>
    <v>       0.17345600       0.68024500       0.06215200 </v>
    <v>       0.42345600       0.18024600       0.06215200 </v>
    <v>       0.07654400       0.15308700       0.16358100 </v>
    <v>       0.32654400       0.65308700       0.16358100 </v>
    <v>       0.07654400       0.84691200       0.16358100 </v>
    <v>       0.32654400       0.34691200       0.16358100 </v>
    <v>       0.17345600       0.31975500       0.26500900 </v>
    <v>       0.42345600       0.81975500       0.26500900 </v>
    <v>       0.15308700       0.66666700       0.26500900 </v>
    <v>       0.40308800       0.16666700       0.26500900 </v>
    <v>       0.17345600       0.01358000       0.26500900 </v>
    <v>       0.42345600       0.51357900       0.26500900 </v>
    <v>       0.67345600       0.98642000       0.06215200 </v>
    <v>       0.92345600       0.48642000       0.06215200 </v>
    <v>       0.59691300       0.50000000       0.16358100 </v>
    <v>       0.84691300       0.00000000       0.16358100 </v>
    <v>       0.65308800       0.33333300       0.06215200 </v>
    <v>       0.90308800       0.83333300       0.06215200 </v>
    <v>       0.67345600       0.68024500       0.06215200 </v>
    <v>       0.92345600       0.18024500       0.06215200 </v>
    <v>       0.57654400       0.15308700       0.16358100 </v>
    <v>       0.82654400       0.65308700       0.16358100 </v>
    <v>       0.57654400       0.84691200       0.16358100 </v>
    <v>       0.82654400       0.34691200       0.16358100 </v>
    <v>       0.67345600       0.31975500       0.26500900 </v>
    <v>       0.92345600       0.81975500       0.26500900 </v>
    <v>       0.65308700       0.66666700       0.26500900 </v>
    <v>       0.90308800       0.16666700       0.26500900 </v>
    <v>       0.67345600       0.01357900       0.26500900 </v>
    <v>       0.92345600       0.51358000       0.26500900 </v>
    <v>       0.00000000       0.66666700       0.20285800 </v>
    <v>       0.25000000       0.16666700       0.20285800 </v>
    <v>       0.00000000       0.33333300       0.12430300 </v>
    <v>       0.25000000       0.83333300       0.12430300 </v>
    <v>       0.00000000       0.00000000       0.10142900 </v>
    <v>       0.25000000       0.50000000       0.10142900 </v>
    <v>       0.00000000       0.66666700       0.02287500 </v>
    <v>       0.25000000       0.16666700       0.02287500 </v>
    <v>       0.00000000       0.33333300       0.30428600 </v>
    <v>       0.25000000       0.83333300       0.30428600 </v>
    <v>       0.00000000       0.00000000       0.22573200 </v>
    <v>       0.25000000       0.50000000       0.22573200 </v>
    <v>       0.00000000       0.33333300       0.00000000 </v>
    <v>       0.25000000       0.83333300       0.00000000 </v>
    <v>       0.50000000       0.66666700       0.20285800 </v>
    <v>       0.75000000       0.16666700       0.20285800 </v>
    <v>       0.50000000       0.33333300       0.12430300 </v>
    <v>       0.75000000       0.83333300       0.12430300 </v>
    <v>       0.50000000       0.00000000       0.10142900 </v>
    <v>       0.75000000       0.50000000       0.10142900 </v>
    <v>       0.50000000       0.66666700       0.02287500 </v>
    <v>       0.75000000       0.16666700       0.02287500 </v>
    <v>       0.50000000       0.33333300       0.30428600 </v>
    <v>       0.75000000       0.83333300       0.30428600 </v>
    <v>       0.50000000       0.00000000       0.22573200 </v>
    <v>       0.75000000       0.50000000       0.22573200 </v>
    <v>       0.50000000       0.33333300       0.00000000 </v>
    <v>       0.75000000       0.83333300       0.00000000 </v>
   </varray>
  </structure>
  <varray name="forces" >
   <v>      -0.15045516       0.05082114      -0.64209302 </v>
   <v>      -0.15045516       0.05082114      -0.64209302 </v>
   <v>      -0.04000324      -0.03178537      -1.04575308 </v>
   <v>      -0.04000324      -0.03178537      -1.04575308 </v>
   <v>       0.11387145       0.13712504      -0.60205652 </v>
   <v>       0.11387145       0.13712504      -0.60205652 </v>
   <v>       0.04155823      -0.17239225      -0.60366954 </v>
   <v>       0.04155823      -0.17239225      -0.60366954 </v>
   <v>      -0.00779389       0.05138179      -1.04614592 </v>
   <v>      -0.00779389       0.05138179      -1.04614592 </v>
   <v>       0.04867962      -0.01751767      -1.04796802 </v>
   <v>       0.04867962      -0.01751767      -1.04796802 </v>
   <v>      -1.24544560       1.32881721       0.77666072 </v>
   <v>      -1.24544560       1.32881721       0.77666072 </v>
   <v>       1.77604940       0.41038696       0.77430062 </v>
   <v>       1.77604940       0.41038696       0.77430062 </v>
   <v>      -0.52963369      -1.74213889       0.77610504 </v>
   <v>      -0.52963369      -1.74213889       0.77610504 </v>
   <v>      -0.15045516       0.05082114      -0.64209302 </v>
   <v>      -0.15045516       0.05082114      -0.64209302 </v>
   <v>      -0.04000324      -0.03178537      -1.04575308 </v>
   <v>      -0.04000324      -0.03178537      -1.04575308 </v>
   <v>       0.11387145       0.13712504      -0.60205652 </v>
   <v>       0.11387145       0.13712504      -0.60205652 </v>
   <v>       0.04155823      -0.17239225      -0.60366954 </v>
   <v>       0.04155823      -0.17239225      -0.60366954 </v>
   <v>      -0.00779389       0.05138179      -1.04614592 </v>
   <v>      -0.00779389       0.05138179      -1.04614592 </v>
   <v>       0.04867962      -0.01751767      -1.04796802 </v>
   <v>       0.04867962      -0.01751767      -1.04796802 </v>
   <v>      -1.24544560       1.32881721       0.77666072 </v>
   <v>      -1.24544560       1.32881721       0.77666072 </v>
   <v>       1.77604940       0.41038696       0.77430062 </v>
   <v>       1.77604940       0.41038696       0.77430062 </v>
   <v>      -0.52963369      -1.74213889       0.77610504 </v>
   <v>      -0.52963369      -1.74213889       0.77610504 </v>
   <v>       0.00038440       0.00272790       3.24758792 </v>
   <v>       0.00038440       0.00272790       3.24758792 </v>
   <v>       0.00541800      -0.00959785       1.73180545 </v>
   <v>       0.00541800      -0.00959785       1.73180545 </v>
   <v>      -0.00958234       0.00219216       1.42187758 </v>
   <v>      -0.00958234       0.00219216       1.42187758 </v>
   <v>       0.00020392       0.04297949       0.38027742 </v>
   <v>       0.00020392       0.04297949       0.38027742 </v>
   <v>      -0.00026475       0.00111443      -5.96933466 </v>
   <v>      -0.00026475       0.00111443      -5.96933466 </v>
   <v>      -0.00058035       0.00076156       1.95849126 </v>
   <v>      -0.00058035       0.00076156       1.95849126 </v>
   <v>      -0.00240600      -0.05487567      -0.11008526 </v>
   <v>      -0.00240600      -0.05487567      -0.11008526 </v>
   <v>       0.00038440       0.00272790       3.24758792 </v>
   <v>       0.00038440       0.00272790       3.24758792 </v>
   <v>       0.00541800      -0.00959785       1.73180545 </v>
   <v>       0.00541800      -0.00959785       1.73180545 </v>
   <v>      -0.00958234       0.00219216       1.42187758 </v>
   <v>      -0.00958234       0.00219216       1.42187758 </v>
   <v>       0.00020392       0.04297949       0.38027742 </v>
   <v>       0.00020392       0.04297949       0.38027742 </v>
   <v>      -0.00026475       0.00111443      -5.96933466 </v>
   <v>      -0.00026475       0.00111443      -5.96933466 </v>
   <v>      -0.00058035       0.00076156       1.95849126 </v>
   <v>      -0.00058035       0.00076156       1.95849126 </v>
   <v>      -0.00240600      -0.05487567      -0.11008526 </v>
   <v>      -0.00240600      -0.05487567      -0.11008526 </v>
  </varray>
  <varray name="stress" >
   <v>      -4.41330412      -0.03942929       0.02284565 </v>
   <v>      -0.03942930      -3.93492752       0.09755584 </v>
   <v>       0.02284563       0.09755585     -29.62113289 </v>
  </varray>
  <energy>
   <i name="e_fr_energy">   -435.81796268 </i>
   <i name="e_wo_entrp">   -435.74779330 </i>
   <i name="e_0_energy">   -435.78287799 </i>
  </energy>
  <time name="totalsc">  497.20   93.70</time>
 </calculation>
 <calculation>
  <scstep>
   <time name="dav">   23.58    3.38</time>
   <time name="total">   34.11    4.96</time>
   <energy>
    <i name="alphaZ">    139.45024009 </i>
    <i name="ewald">  73330.52145994 </i>
    <i name="hartreedc"> -89671.46594718 </i>
    <i name="XCdc">    327.40615125 </i>
    <i name="pawpsdc">  23246.81157605 </i>
    <i name="pawaedc"> -22426.71066794 </i>
    <i name="eentropy">     -0.03391754 </i>
    <i name="bandstr">  -2451.32713928 </i>
    <i name="atom">  17063.98418215 </i>
    <i name="e_fr_energy">   -441.36406245 </i>
    <i name="e_wo_entrp">   -441.33014491 </i>
    <i name="e_0_energy">   -441.34710368 </i>
   </energy>
  </scstep>
  <scstep>
   <time name="diag">    1.66    0.24</time>
   <time name="diis">    3.37    1.27</time>
   <time name="orth">    0.10    0.05</time>
   <time name="total">   15.05    3.13</time>
   <energy>
    <i name="e_fr_energy">   -441.27834106 </i>
    <i name="e_wo_entrp">   -441.24425568 </i>
    <i name="e_0_energy">   -441.26129837 </i>
   </energy>
  </scstep>
  <scstep>
   <time name="diag">    1.65    0.24</time>
   <time name="diis">    3.47    1.30</time>
   <time name="orth">    0.10    0.05</time>
   <time name="total">   15.39    3.19</time>
   <energy>
    <i name="e_fr_energy">   -441.09028006 </i>
    <i name="e_wo_entrp">   -441.05608701 </i>
    <i name="e_0_energy">   -441.07318353 </i>
   </energy>
  </scstep>
  <scstep>
   <time name="diag">    1.65    0.24</time>
   <time name="diis">    3.67    1.40</time>
   <time name="orth">    0.10    0.05</time>
   <time name="total">   15.33    3.25</time>
   <energy>
    <i name="e_fr_energy">   -441.02022479 </i>
    <i name="e_wo_entrp">   -440.98247804 </i>
    <i name="e_0_energy">   -441.00135141 </i>
   </energy>
  </scstep>
  <scstep>
   <time name="diag">    1.64    0.24</time>
   <time name="diis">    3.46    1.30</time>
   <time name="orth">    0.10    0.05</time>
   <time name="total">   15.05    3.14</time>
   <energy>
    <i name="e_fr_energy">   -441.03302880 </i>
    <i name="e_wo_entrp">   -440.96946123 </i>
    <i name="e_0_energy">   -441.00124502 </i>
   </energy>
  </scstep>
  <scstep>
   <time name="diag">    1.65    0.24</time>
   <time name="diis">    3.46    1.30</time>
   <time name="orth">    0.10    0.05</time>
   <time name="total">   15.11    3.14</time>
   <energy>
    <i name="e_fr_energy">   -440.99191980 </i>
    <i name="e_wo_entrp">   -440.93941296 </i>
    <i name="e_0_energy">   -440.96566638 </i>
   </energy>
  </scstep>
  <scstep>
   <time name="diag">    1.65    0.24</time>
   <time name="diis">    3.42    1.28</time>
   <time name="orth">    0.10    0.05</time>
   <time name="total">   15.03    3.12</time>
   <energy>
    <i name="e_fr_energy">   -440.99595932 </i>
    <i name="e_wo_entrp">   -440.94575561 </i>
    <i name="e_0_energy">   -440.97085747 </i>
   </energy>
  </scstep>
  <scstep>
   <time name="diag">    1.65    0.24</time>
   <time name="diis">    3.40    1.31</time>
   <time name="orth">    0.10    0.05</time>
   <time name="total">   15.04    3.16</time>
   <energy>
    <i name="e_fr_energy">   -440.99222536 </i>
    <i name="e_wo_entrp">   -440.93684457 </i>
    <i name="e_0_energy">   -440.96453496 </i>
   </energy>
  </scstep>
  <scstep>
   <time name="diag">    1.66    0.24</time>
   <time name="diis">    3.45    1.29</time>
   <time name="orth">    0.10    0.05</time>
   <time name="total">   15.14    3.14</time>
   <energy>
    <i name="e_fr_energy">   -440.99343136 </i>
    <i name="e_wo_entrp">   -440.93526378 </i>
    <i name="e_0_energy">   -440.96434757 </i>
   </energy>
  </scstep>
  <scstep>
   <time name="diag">    1.64    0.23</time>
   <time name="diis">    3.44    1.29</time>
   <time name="orth">    0.10    0.05</time>
   <time name="total">   15.14    3.14</time>
   <energy>
    <i name="e_fr_energy">   -440.99415971 </i>
    <i name="e_wo_entrp">   -440.93943603 </i>
    <i name="e_0_energy">   -440.96679787 </i>
   </energy>
  </scstep>
  <scstep>
   <time name="diag">    1.65    0.24</time>
   <time name="diis">    3.30    1.23</time>
   <time name="orth">    0.10    0.05</time>
   <time name="total">   15.13    3.10</time>
   <energy>
    <i name="e_fr_energy">   -440.99447387 </i>
    <i name="e_wo_entrp">   -440.94033766 </i>
    <i name="e_0_energy">   -440.96740576 </i>
   </energy>
  </scstep>
  <scstep>
   <time name="diag">    1.66    0.24</time>
   <time name="diis">    2.89    1.00</time>
   <time name="orth">    0.10    0.05</time>
   <time name="total">   14.64    2.86</time>
   <energy>
    <i name="e_fr_energy">   -440.99390351 </i>
    <i name="e_wo_entrp">   -440.93756719 </i>
    <i name="e_0_energy">   -440.96573535 </i>
   </energy>
  </scstep>
  <scstep>
   <time name="diag">    1.65    0.24</time>
   <time name="diis">    2.63    0.88</time>
   <time name="orth">    0.10    0.05</time>
   <time name="total">   14.38    2.74</time>
   <energy>
    <i name="e_fr_energy">   -440.99352980 </i>
    <i name="e_wo_entrp">   -440.93704314 </i>
    <i name="e_0_energy">   -440.96528647 </i>
   </energy>
  </scstep>
  <scstep>
   <time name="diag">    1.65    0.24</time>
   <time name="diis">    2.57    0.85</time>
   <time name="orth">    0.10    0.05</time>
   <time name="total">   14.40    2.72</time>
   <energy>
    <i name="e_fr_energy">   -440.99307594 </i>
    <i name="e_wo_entrp">   -440.93635545 </i>
    <i name="e_0_energy">   -440.96471569 </i>
   </energy>
  </scstep>
  <scstep>
   <time name="diag">    1.65    0.24</time>
   <time name="diis">    2.32    0.73</time>
   <time name="orth">    0.10    0.05</time>
   <time name="total">   14.12    2.63</time>
   <energy>
    <i name="e_fr_energy">   -440.99280498 </i>
    <i name="e_wo_entrp">   -440.93636755 </i>
    <i name="e_0_energy">   -440.96458626 </i>
   </energy>
  </scstep>
  <scstep>
   <time name="diag">    1.65    0.24</time>
   <time name="diis">    2.46    0.80</time>
   <time name="orth">    0.10    0.05</time>
   <time name="total">   12.66    2.36</time>
   <energy>
    <i name="alphaZ">    139.45024009 </i>
    <i name="ewald">  73330.52145994 </i>
    <i name="hartreedc"> -89605.96545887 </i>
    <i name="XCdc">    328.42489061 </i>
    <i name="pawpsdc">  23783.77944827 </i>
    <i name="pawaedc"> -22964.08365093 </i>
    <i name="eentropy">     -0.05699051 </i>
    <i name="bandstr">  -2517.04687422 </i>
    <i name="atom">  17063.98418215 </i>
    <i name="e_fr_energy">   -440.99275348 </i>
    <i name="e_wo_entrp">   -440.93576296 </i>
    <i name="e_0_energy">   -440.96425822 </i>
   </energy>
  </scstep>
  <structure>
   <crystal>
    <varray name="basis" >
     <v>       9.61490200       0.00000000       0.00000000 </v>
     <v>       0.00000000       8.32674900       0.00000000 </v>
     <v>       0.00000000       0.00000000      21.56058700 </v>
    </varray>
    <i name="volume">   1726.15947396 </i>
    <varray name="rec_basis" >
     <v>       0.10400522       0.00000000       0.00000000 </v>
     <v>       0.00000000       0.12009489       0.00000000 </v>
     <v>       0.00000000       0.00000000       0.04638093 </v>
    </varray>
   </crystal>
   <varray name="positions" >
    <v>       0.17345600       0.98642000       0.06215200 </v>
    <v>       0.42345600       0.48642000       0.06215200 </v>
    <v>       0.09691300       0.50000000       0.16358100 </v>
    <v>       0.34691300       0.00000000       0.16358100 </v>
    <v>       0.15308800       0.33333300       0.06215200 </v>
    <v>       0.40308800       0.83333300       0.06215200 </v>
    <v>       0.17345600       0.68024500       0.06215200 </v>
    <v>       0.42345600       0.18024600       0.06215200 </v>
    <v>       0.07654400       0.15308700       0.16358100 </v>
    <v>       0.32654400       0.65308700       0.16358100 </v>
    <v>       0.07654400       0.84691200       0.16358100 </v>
    <v>       0.32654400       0.34691200       0.16358100 </v>
    <v>       0.17345600       0.31975500       0.26500900 </v>
    <v>       0.42345600       0.81975500       0.26500900 </v>
    <v>       0.15308700       0.66666700       0.26500900 </v>
    <v>       0.40308800       0.16666700       0.26500900 </v>
    <v>       0.17345600       0.01358000       0.26500900 </v>
    <v>       0.42345600       0.51357900       0.26500900 </v>
    <v>       0.67345600       0.98642000       0.06215200 </v>
    <v>       0.92345600       0.48642000       0.06215200 </v>
    <v>       0.59691300       0.50000000       0.16358100 </v>
    <v>       0.84691300       0.00000000       0.16358100 </v>
    <v>       0.65308800       0.33333300       0.06215200 </v>
    <v>       0.90308800       0.83333300       0.06215200 </v>
    <v>       0.67345600       0.68024500       0.06215200 </v>
    <v>       0.92345600       0.18024500       0.06215200 </v>
    <v>       0.57654400       0.15308700       0.16358100 </v>
    <v>       0.82654400       0.65308700       0.16358100 </v>
    <v>       0.57654400       0.84691200       0.16358100 </v>
    <v>       0.82654400       0.34691200       0.16358100 </v>
    <v>       0.67345600       0.31975500       0.26500900 </v>
    <v>       0.92345600       0.81975500       0.26500900 </v>
    <v>       0.65308700       0.66666700       0.26500900 </v>
    <v>       0.90308800       0.16666700       0.26500900 </v>
    <v>       0.67345600       0.01357900       0.26500900 </v>
    <v>       0.92345600       0.51358000       0.26500900 </v>
    <v>       0.00000000       0.66666700       0.20285800 </v>
    <v>       0.25000000       0.16666700       0.20285800 </v>
    <v>       0.00000000       0.33333300       0.12430300 </v>
    <v>       0.25000000       0.83333300       0.12430300 </v>
    <v>       0.00000000       0.00000000       0.10142900 </v>
    <v>       0.25000000       0.50000000       0.10142900 </v>
    <v>       0.00000000       0.66666700       0.02287500 </v>
    <v>       0.25000000       0.16666700       0.02287500 </v>
    <v>      -0.00000133       0.33333946       0.29092938 </v>
    <v>       0.24999867       0.83333946       0.29092938 </v>
    <v>       0.00000000       0.00000000       0.22573200 </v>
    <v>       0.25000000       0.50000000       0.22573200 </v>
    <v>       0.00000000       0.33333300       0.00000000 </v>
    <v>       0.25000000       0.83333300       0.00000000 </v>
    <v>       0.50000000       0.66666700       0.20285800 </v>
    <v>       0.75000000       0.16666700       0.20285800 </v>
    <v>       0.50000000       0.33333300       0.12430300 </v>
    <v>       0.75000000       0.83333300       0.12430300 </v>
    <v>       0.50000000       0.00000000       0.10142900 </v>
    <v>       0.75000000       0.50000000       0.10142900 </v>
    <v>       0.50000000       0.66666700       0.02287500 </v>
    <v>       0.75000000       0.16666700       0.02287500 </v>
    <v>       0.49999867       0.33333946       0.29092938 </v>
    <v>       0.74999867       0.83333946       0.29092938 </v>
    <v>       0.50000000       0.00000000       0.22573200 </v>
    <v>       0.75000000       0.50000000       0.22573200 </v>
    <v>       0.50000000       0.33333300       0.00000000 </v>
    <v>       0.75000000       0.83333300       0.00000000 </v>
   </varray>
  </structure>
  <varray name="forces" >
   <v>      -0.28146868      -0.00756849      -0.07858982 </v>
   <v>      -0.28146868      -0.00756849      -0.07858982 </v>
   <v>      -0.06571880       0.00043101      -0.58374019 </v>
   <v>      -0.06571880       0.00043101      -0.58374019 </v>
   <v>       0.13357382       0.25362668      -0.07053100 </v>
   <v>       0.13357382       0.25362668      -0.07053100 </v>
   <v>       0.14772095      -0.23915879      -0.07224674 </v>
   <v>       0.14772095      -0.23915879      -0.07224674 </v>
   <v>       0.03243619       0.06004642      -0.58367555 </v>
   <v>       0.03243619       0.06004642      -0.58367555 </v>
   <v>       0.03265772      -0.05860521      -0.58388147 </v>
   <v>       0.03265772      -0.05860521      -0.58388147 </v>
   <v>      -0.47568393       1.24716032       0.13769315 </v>
   <v>      -0.47568393       1.24716032       0.13769315 </v>
   <v>       1.32026339      -0.21496334       0.13549426 </v>
   <v>       1.32026339      -0.21496334       0.13549426 </v>
   <v>      -0.84393637      -1.03359362       0.13693830 </v>
   <v>      -0.84393637      -1.03359362       0.13693830 </v>
   <v>      -0.28146868      -0.00756849      -0.07858982 </v>
   <v>      -0.28146868      -0.00756849      -0.07858982 </v>
   <v>      -0.06571880       0.00043101      -0.58374019 </v>
   <v>      -0.06571880       0.00043101      -0.58374019 </v>
   <v>       0.13357382       0.25362668      -0.07053100 </v>
   <v>       0.13357382       0.25362668      -0.07053100 </v>
   <v>       0.14772095      -0.23915879      -0.07224674 </v>
   <v>       0.14772095      -0.23915879      -0.07224674 </v>
   <v>       0.03243619       0.06004642      -0.58367555 </v>
   <v>       0.03243619       0.06004642      -0.58367555 </v>
   <v>       0.03265772      -0.05860521      -0.58388147 </v>
   <v>       0.03265772      -0.05860521      -0.58388147 </v>
   <v>      -0.47568393       1.24716032       0.13769315 </v>
   <v>      -0.47568393       1.24716032       0.13769315 </v>
   <v>       1.32026339      -0.21496334       0.13549426 </v>
   <v>       1.32026339      -0.21496334       0.13549426 </v>
   <v>      -0.84393637      -1.03359362       0.13693830 </v>
   <v>      -0.84393637      -1.03359362       0.13693830 </v>
   <v>       0.00028272       0.00326128       2.53648983 </v>
   <v>       0.00028272       0.00326128       2.53648983 </v>
   <v>       0.00108577      -0.00356038       0.78409132 </v>
   <v>       0.00108577      -0.00356038       0.78409132 </v>
   <v>      -0.00233559       0.00095551       0.67295702 </v>
   <v>      -0.00233559       0.00095551       0.67295702 </v>
   <v>       0.00111790       0.00468443      -0.13499344 </v>
   <v>       0.00111790       0.00468443      -0.13499344 </v>
   <v>       0.00006193      -0.00278750      -2.97216194 </v>
   <v>       0.00006193      -0.00278750      -2.97216194 </v>
   <v>      -0.00046155       0.00074865       1.20444628 </v>
   <v>      -0.00046155       0.00074865       1.20444628 </v>
   <v>       0.00040453      -0.01067697      -0.52829001 </v>
   <v>       0.00040453      -0.01067697      -0.52829001 </v>
   <v>       0.00028272       0.00326128       2.53648983 </v>
   <v>       0.00028272       0.00326128       2.53648983 </v>
   <v>       0.00108577      -0.00356038       0.78409132 </v>
   <v>       0.00108577      -0.00356038       0.78409132 </v>
   <v>      -0.00233559       0.00095551       0.67295702 </v>
   <v>      -0.00233559       0.00095551       0.67295702 </v>
   <v>       0.00111790       0.00468443      -0.13499344 </v>
   <v>       0.00111790       0.00468443      -0.13499344 </v>
   <v>       0.00006193      -0.00278750      -2.97216194 </v>
   <v>       0.00006193      -0.00278750      -2.97216194 </v>
   <v>      -0.00046155       0.00074865       1.20444628 </v>
   <v>      -0.00046155       0.00074865       1.20444628 </v>
   <v>       0.00040453      -0.01067697      -0.52829001 </v>
   <v>       0.00040453      -0.01067697      -0.52829001 </v>
  </varray>
  <varray name="stress" >
   <v>       4.55798339      -0.01451270      -0.00667266 </v>
   <v>      -0.01451266       4.74574561       0.00996576 </v>
   <v>      -0.00667257       0.00996578      -9.77273753 </v>
  </varray>
  <energy>
   <i name="e_fr_energy">   -440.99275348 </i>
   <i name="e_wo_entrp">   -440.93576296 </i>
   <i name="e_0_energy">   -440.96425822 </i>
  </energy>
  <time name="totalsc">  294.51   57.68</time>
 </calculation>
 <calculation>
  <scstep>
   <time name="dav">   22.93    3.28</time>
   <time name="total">   33.09    4.83</time>
   <energy>
    <i name="alphaZ">    139.45024009 </i>
    <i name="ewald">  73914.79263855 </i>
    <i name="hartreedc"> -90158.35818757 </i>
    <i name="XCdc">    330.77444839 </i>
    <i name="pawpsdc">  23783.67229577 </i>
    <i name="pawaedc"> -22963.97732421 </i>
    <i name="eentropy">     -0.03404950 </i>
    <i name="bandstr">  -2552.98301411 </i>
    <i name="atom">  17063.98418215 </i>
    <i name="e_fr_energy">   -442.67877044 </i>
    <i name="e_wo_entrp">   -442.64472094 </i>
    <i name="e_0_energy">   -442.66174569 </i>
   </energy>
  </scstep>
  <scstep>
   <time name="diag">    1.65    0.24</time>
   <time name="diis">    3.44    1.29</time>
   <time name="orth">    0.10    0.05</time>
   <time name="total">   15.03    3.12</time>
   <energy>
    <i name="e_fr_energy">   -442.77736617 </i>
    <i name="e_wo_entrp">   -442.74326241 </i>
    <i name="e_0_energy">   -442.76031429 </i>
   </energy>
  </scstep>
  <scstep>
   <time name="diag">    1.64    0.24</time>
   <time name="diis">    3.46    1.30</time>
   <time name="orth">    0.10    0.05</time>
   <time name="total">   14.79    3.09</time>
   <energy>
    <i name="e_fr_energy">   -442.82685678 </i>
    <i name="e_wo_entrp">   -442.79271697 </i>
    <i name="e_0_energy">   -442.80978687 </i>
   </energy>
  </scstep>
  <scstep>
   <time name="diag">    1.64    0.24</time>
   <time name="diis">    3.67    1.40</time>
   <time name="orth">    0.10    0.05</time>
   <time name="total">   15.22    3.23</time>
   <energy>
    <i name="e_fr_energy">   -442.83169705 </i>
    <i name="e_wo_entrp">   -442.79755409 </i>
    <i name="e_0_energy">   -442.81462557 </i>
   </energy>
  </scstep>
  <scstep>
   <time name="diag">    1.65    0.24</time>
   <time name="diis">    3.51    1.32</time>
   <time name="orth">    0.10    0.05</time>
   <time name="total">   14.98    3.14</time>
   <energy>
    <i name="e_fr_energy">   -442.83191565 </i>
    <i name="e_wo_entrp">   -442.79777307 </i>
    <i name="e_0_energy">   -442.81484436 </i>
   </energy>
  </scstep>
  <scstep>
   <time name="diag">    1.65    0.24</time>
   <time name="diis">    3.80    1.47</time>
   <time name="orth">    0.10    0.05</time>
   <time name="total">   15.16    3.27</time>
   <energy>
    <i name="e_fr_energy">   -442.83180209 </i>
    <i name="e_wo_entrp">   -442.79765551 </i>
    <i name="e_0_energy">   -442.81472880 </i>
   </energy>
  </scstep>
  <scstep>
   <time name="diag">    1.65    0.24</time>
   <time name="diis">    3.68    1.41</time>
   <time name="orth">    0.10    0.05</time>
   <time name="total">   15.11    3.21</time>
   <energy>
    <i name="e_fr_energy">   -442.83505539 </i>
    <i name="e_wo_entrp">   -442.80089954 </i>
    <i name="e_0_energy">   -442.81797747 </i>
   </energy>
  </scstep>
  <scstep>
   <time name="diag">    1.65    0.24</time>
   <time name="diis">    3.50    1.31</time>
   <time name="orth">    0.10    0.05</time>
   <time name="total">   15.03    3.13</time>
   <energy>
    <i name="e_fr_energy">   -442.83266799 </i>
    <i name="e_wo_entrp">   -442.79851577 </i>
    <i name="e_0_energy">   -442.81559188 </i>
   </energy>
  </scstep>
  <scstep>
   <time name="diag">    1.65    0.24</time>
   <time name="diis">    3.56    1.35</time>
   <time name="orth">    0.10    0.05</time>
   <time name="total">   15.05    3.16</time>
   <energy>
    <i name="e_fr_energy">   -442.83314997 </i>
    <i name="e_wo_entrp">   -442.79899788 </i>
    <i name="e_0_energy">   -442.81607392 </i>
   </energy>
  </scstep>
  <scstep>
   <time name="diag">    1.65    0.24</time>
   <time name="diis">    3.27    1.20</time>
   <time name="orth">    0.10    0.05</time>
   <time name="total">   14.82    3.02</time>
   <energy>
    <i name="e_fr_energy">   -442.83206987 </i>
    <i name="e_wo_entrp">   -442.79791805 </i>
    <i name="e_0_energy">   -442.81499396 </i>
   </energy>
  </scstep>
  <scstep>
   <time name="diag">    1.61    0.23</time>
   <time name="diis">    3.52    1.32</time>
   <time name="orth">    0.10    0.05</time>
   <time name="total">   15.21    3.16</time>
   <energy>
    <i name="e_fr_energy">   -442.83011714 </i>
    <i name="e_wo_entrp">   -442.79596984 </i>
    <i name="e_0_energy">   -442.81304349 </i>
   </energy>
  </scstep>
  <scstep>
   <time name="diag">    1.62    0.23</time>
   <time name="diis">    3.30    1.21</time>
   <time name="orth">    0.10    0.05</time>
   <time name="total">   14.99    3.05</time>
   <energy>
    <i name="e_fr_energy">   -442.82889639 </i>
    <i name="e_wo_entrp">   -442.79475673 </i>
    <i name="e_0_energy">   -442.81182656 </i>
   </energy>
  </scstep>
  <scstep>
   <time name="diag">    1.62    0.23</time>
   <time name="diis">    2.55    0.83</time>
   <time name="orth">    0.10    0.05</time>
   <time name="total">   14.34    2.70</time>
   <energy>
    <i name="e_fr_energy">   -442.82860243 </i>
    <i name="e_wo_entrp">   -442.79446597 </i>
    <i name="e_0_energy">   -442.81153420 </i>
   </energy>
  </scstep>
  <scstep>
   <time name="diag">    1.65    0.24</time>
   <time name="diis">    3.12    1.13</time>
   <time name="orth">    0.10    0.05</time>
   <time name="total">   15.26    3.05</time>
   <energy>
    <i name="e_fr_energy">   -442.82844469 </i>
    <i name="e_wo_entrp">   -442.79431268 </i>
    <i name="e_0_energy">   -442.81137869 </i>
   </energy>
  </scstep>
  <scstep>
   <time name="diag">    1.62    0.23</time>
   <time name="diis">    2.47    0.80</time>
   <time name="orth">    0.10    0.05</time>
   <time name="total">   14.40    2.68</time>
   <energy>
    <i name="e_fr_energy">   -442.82864380 </i>
    <i name="e_wo_entrp">   -442.79451218 </i>
    <i name="e_0_energy">   -442.81157799 </i>
   </energy>
  </scstep>
  <scstep>
   <time name="diag">    1.64    0.24</time>
   <time name="diis">    2.44    0.79</time>
   <time name="orth">    0.10    0.05</time>
   <time name="total">   14.41    2.68</time>
   <energy>
    <i name="e_fr_energy">   -442.82890856 </i>
    <i name="e_wo_entrp">   -442.79477654 </i>
    <i name="e_0_energy">   -442.81184255 </i>
   </energy>
  </scstep>
  <scstep>
   <time name="diag">    1.65    0.24</time>
   <time name="diis">    2.43    0.77</time>
   <time name="orth">    0.10    0.05</time>
   <time name="total">   12.67    2.34</time>
   <energy>
    <i name="alphaZ">    139.45024009 </i>
    <i name="ewald">  73914.79263855 </i>
    <i name="hartreedc"> -90064.41415656 </i>
    <i name="XCdc">    331.07821629 </i>
    <i name="pawpsdc">  24277.12150702 </i>
    <i name="pawaedc"> -23457.70388543 </i>
    <i name="eentropy">     -0.03413262 </i>
    <i name="bandstr">  -2647.10356309 </i>
    <i name="atom">  17063.98418215 </i>
    <i name="e_fr_energy">   -442.82895360 </i>
    <i name="e_wo_entrp">   -442.79482098 </i>
    <i name="e_0_energy">   -442.81188729 </i>
   </energy>
  </scstep>
  <structure>
   <crystal>
    <varray name="basis" >
     <v>       9.61490200       0.00000000       0.00000000 </v>
     <v>       0.00000000       8.32674900       0.00000000 </v>
     <v>       0.00000000       0.00000000      21.56058700 </v>
    </varray>
    <i name="volume">   1726.15947396 </i>
    <varray name="rec_basis" >
     <v>       0.10400522       0.00000000       0.00000000 </v>
     <v>       0.00000000       0.12009489       0.00000000 </v>
     <v>       0.00000000       0.00000000       0.04638093 </v>
    </varray>
   </crystal>
   <varray name="positions" >
    <v>       0.17345600       0.98642000       0.06215200 </v>
    <v>       0.42345600       0.48642000       0.06215200 </v>
    <v>       0.09691300       0.50000000       0.16358100 </v>
    <v>       0.34691300       0.00000000       0.16358100 </v>
    <v>       0.15308800       0.33333300       0.06215200 </v>
    <v>       0.40308800       0.83333300       0.06215200 </v>
    <v>       0.17345600       0.68024500       0.06215200 </v>
    <v>       0.42345600       0.18024600       0.06215200 </v>
    <v>       0.07654400       0.15308700       0.16358100 </v>
    <v>       0.32654400       0.65308700       0.16358100 </v>
    <v>       0.07654400       0.84691200       0.16358100 </v>
    <v>       0.32654400       0.34691200       0.16358100 </v>
    <v>       0.17345600       0.31975500       0.26500900 </v>
    <v>       0.42345600       0.81975500       0.26500900 </v>
    <v>       0.15308700       0.66666700       0.26500900 </v>
    <v>       0.40308800       0.16666700       0.26500900 </v>
    <v>       0.17345600       0.01358000       0.26500900 </v>
    <v>       0.42345600       0.51357900       0.26500900 </v>
    <v>       0.67345600       0.98642000       0.06215200 </v>
    <v>       0.92345600       0.48642000       0.06215200 </v>
    <v>       0.59691300       0.50000000       0.16358100 </v>
    <v>       0.84691300       0.00000000       0.16358100 </v>
    <v>       0.65308800       0.33333300       0.06215200 </v>
    <v>       0.90308800       0.83333300       0.06215200 </v>
    <v>       0.67345600       0.68024500       0.06215200 </v>
    <v>       0.92345600       0.18024500       0.06215200 </v>
    <v>       0.57654400       0.15308700       0.16358100 </v>
    <v>       0.82654400       0.65308700       0.16358100 </v>
    <v>       0.57654400       0.84691200       0.16358100 </v>
    <v>       0.82654400       0.34691200       0.16358100 </v>
    <v>       0.67345600       0.31975500       0.26500900 </v>
    <v>       0.92345600       0.81975500       0.26500900 </v>
    <v>       0.65308700       0.66666700       0.26500900 </v>
    <v>       0.90308800       0.16666700       0.26500900 </v>
    <v>       0.67345600       0.01357900       0.26500900 </v>
    <v>       0.92345600       0.51358000       0.26500900 </v>
    <v>       0.00000000       0.66666700       0.20285800 </v>
    <v>       0.25000000       0.16666700       0.20285800 </v>
    <v>       0.00000000       0.33333300       0.12430300 </v>
    <v>       0.25000000       0.83333300       0.12430300 </v>
    <v>       0.00000000       0.00000000       0.10142900 </v>
    <v>       0.25000000       0.50000000       0.10142900 </v>
    <v>       0.00000000       0.66666700       0.02287500 </v>
    <v>       0.25000000       0.16666700       0.02287500 </v>
    <v>      -0.00000254       0.33334537       0.27869850 </v>
    <v>       0.24999746       0.83334537       0.27869850 </v>
    <v>       0.00000000       0.00000000       0.22573200 </v>
    <v>       0.25000000       0.50000000       0.22573200 </v>
    <v>       0.00000000       0.33333300       0.00000000 </v>
    <v>       0.25000000       0.83333300       0.00000000 </v>
    <v>       0.50000000       0.66666700       0.20285800 </v>
    <v>       0.75000000       0.16666700       0.20285800 </v>
    <v>       0.50000000       0.33333300       0.12430300 </v>
    <v>       0.75000000       0.83333300       0.12430300 </v>
    <v>       0.50000000       0.00000000       0.10142900 </v>
    <v>       0.75000000       0.50000000       0.10142900 </v>
    <v>       0.50000000       0.66666700       0.02287500 </v>
    <v>       0.75000000       0.16666700       0.02287500 </v>
    <v>       0.49999746       0.33334537       0.27869850 </v>
    <v>       0.74999746       0.83334537       0.27869850 </v>
    <v>       0.50000000       0.00000000       0.22573200 </v>
    <v>       0.75000000       0.50000000       0.22573200 </v>
    <v>       0.50000000       0.33333300       0.00000000 </v>
    <v>       0.75000000       0.83333300       0.00000000 </v>
   </varray>
  </structure>
  <varray name="forces" >
   <v>      -0.37128825      -0.04067067       0.30239762 </v>
   <v>      -0.37128825      -0.04067067       0.30239762 </v>
   <v>      -0.12406986      -0.04890255      -0.35604758 </v>
   <v>      -0.12406986      -0.04890255      -0.35604758 </v>
   <v>       0.15243534       0.33425136       0.29269382 </v>
   <v>       0.15243534       0.33425136       0.29269382 </v>
   <v>       0.21565942      -0.29095724       0.29023716 </v>
   <v>       0.21565942      -0.29095724       0.29023716 </v>
   <v>       0.01882120       0.13637493      -0.35585876 </v>
   <v>       0.01882120       0.13637493      -0.35585876 </v>
   <v>       0.10400293      -0.08592815      -0.35514090 </v>
   <v>       0.10400293      -0.08592815      -0.35514090 </v>
   <v>       0.58240695       1.15340880      -0.56527960 </v>
   <v>       0.58240695       1.15340880      -0.56527960 </v>
   <v>       0.71013310      -1.08419022      -0.56739201 </v>
   <v>       0.71013310      -1.08419022      -0.56739201 </v>
   <v>      -1.29265707      -0.06827505      -0.56637045 </v>
   <v>      -1.29265707      -0.06827505      -0.56637045 </v>
   <v>      -0.37128825      -0.04067067       0.30239762 </v>
   <v>      -0.37128825      -0.04067067       0.30239762 </v>
   <v>      -0.12406986      -0.04890255      -0.35604758 </v>
   <v>      -0.12406986      -0.04890255      -0.35604758 </v>
   <v>       0.15243534       0.33425136       0.29269382 </v>
   <v>       0.15243534       0.33425136       0.29269382 </v>
   <v>       0.21565942      -0.29095724       0.29023716 </v>
   <v>       0.21565942      -0.29095724       0.29023716 </v>
   <v>       0.01882120       0.13637493      -0.35585876 </v>
   <v>       0.01882120       0.13637493      -0.35585876 </v>
   <v>       0.10400293      -0.08592815      -0.35514090 </v>
   <v>       0.10400293      -0.08592815      -0.35514090 </v>
   <v>       0.58240695       1.15340880      -0.56527960 </v>
   <v>       0.58240695       1.15340880      -0.56527960 </v>
   <v>       0.71013310      -1.08419022      -0.56739201 </v>
   <v>       0.71013310      -1.08419022      -0.56739201 </v>
   <v>      -1.29265707      -0.06827505      -0.56637045 </v>
   <v>      -1.29265707      -0.06827505      -0.56637045 </v>
   <v>       0.00034098       0.00354179       2.39757852 </v>
   <v>       0.00034098       0.00354179       2.39757852 </v>
   <v>      -0.00092251      -0.00034605       0.03650682 </v>
   <v>      -0.00092251      -0.00034605       0.03650682 </v>
   <v>       0.00142102       0.00016409       0.16365277 </v>
   <v>       0.00142102       0.00016409       0.16365277 </v>
   <v>       0.00134071      -0.01609453      -0.48688641 </v>
   <v>       0.00134071      -0.01609453      -0.48688641 </v>
   <v>       0.00026322      -0.00613527      -0.49974889 </v>
   <v>       0.00026322      -0.00613527      -0.49974889 </v>
   <v>      -0.00039875       0.00090008       1.08788874 </v>
   <v>      -0.00039875       0.00090008       1.08788874 </v>
   <v>       0.00251157       0.01285867      -0.81823086 </v>
   <v>       0.00251157       0.01285867      -0.81823086 </v>
   <v>       0.00034098       0.00354179       2.39757852 </v>
   <v>       0.00034098       0.00354179       2.39757852 </v>
   <v>      -0.00092251      -0.00034605       0.03650682 </v>
   <v>      -0.00092251      -0.00034605       0.03650682 </v>
   <v>       0.00142102       0.00016409       0.16365277 </v>
   <v>       0.00142102       0.00016409       0.16365277 </v>
   <v>       0.00134071      -0.01609453      -0.48688641 </v>
   <v>       0.00134071      -0.01609453      -0.48688641 </v>
   <v>       0.00026322      -0.00613527      -0.49974889 </v>
   <v>       0.00026322      -0.00613527      -0.49974889 </v>
   <v>      -0.00039875       0.00090008       1.08788874 </v>
[...]
       <r>   -19.0166    24.0878    60.2807 </r>
       <r>   -18.9123    34.9694    63.9268 </r>
       <r>   -18.8080    44.7820    68.5962 </r>
       <r>   -18.7038    26.9578    71.4070 </r>
       <r>   -18.5995     5.4273    71.9729 </r>
       <r>   -18.4952     0.2581    71.9998 </r>
       <r>   -18.3910     0.0022    72.0000 </r>
       <r>   -18.2867     0.0000    72.0000 </r>
       <r>   -18.1824     0.0000    72.0000 </r>
       <r>   -18.0782     0.0000    72.0000 </r>
       <r>   -17.9739     0.0000    72.0000 </r>
       <r>   -17.8696     0.0000    72.0000 </r>
       <r>   -17.7654     0.0000    72.0000 </r>
       <r>   -17.6611     0.0000    72.0000 </r>
       <r>   -17.5568     0.0000    72.0000 </r>
       <r>   -17.4526     0.0000    72.0000 </r>
       <r>   -17.3483     0.0000    72.0000 </r>
       <r>   -17.2440     0.0000    72.0000 </r>
       <r>   -17.1398     0.0000    72.0000 </r>
       <r>   -17.0355     0.0000    72.0000 </r>
       <r>   -16.9312     0.0000    72.0000 </r>
       <r>   -16.8270     0.0000    72.0000 </r>
       <r>   -16.7227     0.0000    72.0000 </r>
       <r>   -16.6184     0.0000    72.0000 </r>
       <r>   -16.5142     0.0000    72.0000 </r>
       <r>   -16.4099     0.0000    72.0000 </r>
       <r>   -16.3056     0.0000    72.0000 </r>
       <r>   -16.2014     0.0000    72.0000 </r>
       <r>   -16.0971     0.0000    72.0000 </r>
       <r>   -15.9928     0.0000    72.0000 </r>
       <r>   -15.8885     0.0000    72.0000 </r>
       <r>   -15.7843     0.0000    72.0000 </r>
       <r>   -15.6800     0.0000    72.0000 </r>
       <r>   -15.5757     0.0000    72.0000 </r>
       <r>   -15.4715     0.0000    72.0000 </r>
       <r>   -15.3672     0.0000    72.0000 </r>
       <r>   -15.2629     0.0000    72.0000 </r>
       <r>   -15.1587     0.0000    72.0000 </r>
       <r>   -15.0544     0.0000    72.0000 </r>
       <r>   -14.9501     0.0000    72.0000 </r>
       <r>   -14.8459     0.0000    72.0000 </r>
       <r>   -14.7416     0.0000    72.0000 </r>
       <r>   -14.6373     0.0000    72.0000 </r>
       <r>   -14.5331     0.0000    72.0000 </r>
       <r>   -14.4288     0.0000    72.0000 </r>
       <r>   -14.3245     0.0000    72.0000 </r>
       <r>   -14.2203     0.0000    72.0000 </r>
       <r>   -14.1160     0.0000    72.0000 </r>
       <r>   -14.0117     0.0000    72.0000 </r>
       <r>   -13.9075     0.0000    72.0000 </r>
       <r>   -13.8032     0.0000    72.0000 </r>
       <r>   -13.6989     0.0000    72.0000 </r>
       <r>   -13.5947     0.0000    72.0000 </r>
       <r>   -13.4904     0.0000    72.0000 </r>
       <r>   -13.3861     0.0000    72.0000 </r>
       <r>   -13.2819     0.0000    72.0000 </r>
       <r>   -13.1776     0.0000    72.0000 </r>
       <r>   -13.0733     0.0000    72.0000 </r>
       <r>   -12.9691     0.0000    72.0000 </r>
       <r>   -12.8648     0.0000    72.0000 </r>
       <r>   -12.7605     0.0000    72.0000 </r>
       <r>   -12.6563     0.0000    72.0000 </r>
       <r>   -12.5520     0.0000    72.0000 </r>
       <r>   -12.4477     0.0000    72.0000 </r>
       <r>   -12.3435     0.0000    72.0000 </r>
       <r>   -12.2392     0.0000    72.0000 </r>
       <r>   -12.1349     0.0000    72.0000 </r>
       <r>   -12.0307     0.0000    72.0000 </r>
       <r>   -11.9264     0.0000    72.0000 </r>
       <r>   -11.8221     0.0000    72.0000 </r>
       <r>   -11.7179     0.0000    72.0000 </r>
       <r>   -11.6136     0.0000    72.0000 </r>
       <r>   -11.5093     0.0000    72.0000 </r>
       <r>   -11.4051     0.0000    72.0000 </r>
       <r>   -11.3008     0.0000    72.0000 </r>
       <r>   -11.1965     0.0000    72.0000 </r>
       <r>   -11.0922     0.0000    72.0000 </r>
       <r>   -10.9880     0.0000    72.0000 </r>
       <r>   -10.8837     0.0000    72.0000 </r>
       <r>   -10.7794     0.0000    72.0000 </r>
       <r>   -10.6752     0.0000    72.0000 </r>
       <r>   -10.5709     0.0000    72.0000 </r>
       <r>   -10.4666     0.0000    72.0000 </r>
       <r>   -10.3624     0.0000    72.0000 </r>
       <r>   -10.2581     0.0000    72.0000 </r>
       <r>   -10.1538     0.0000    72.0000 </r>
       <r>   -10.0496     0.0000    72.0000 </r>
       <r>    -9.9453     0.0000    72.0000 </r>
       <r>    -9.8410     0.0000    72.0000 </r>
       <r>    -9.7368     0.0000    72.0000 </r>
       <r>    -9.6325     0.0030    72.0003 </r>
       <r>    -9.5282     0.2233    72.0236 </r>
       <r>    -9.4240     3.0926    72.3461 </r>
       <r>    -9.3197    13.2844    73.7312 </r>
       <r>    -9.2154    23.5287    76.1845 </r>
       <r>    -9.1112    26.0323    78.8988 </r>
       <r>    -9.0069    28.4102    81.8610 </r>
       <r>    -8.9026    25.2635    84.4952 </r>
       <r>    -8.7984    25.0135    87.1033 </r>
       <r>    -8.6941    27.7765    89.9995 </r>
       <r>    -8.5898    28.4570    92.9666 </r>
       <r>    -8.4856    24.7265    95.5448 </r>
       <r>    -8.3813    25.1780    98.1700 </r>
       <r>    -8.2770    22.8263   100.5501 </r>
       <r>    -8.1728    20.1434   102.6504 </r>
       <r>    -8.0685    16.1283   104.3320 </r>
       <r>    -7.9642    21.2338   106.5460 </r>
       <r>    -7.8600    31.5476   109.8354 </r>
       <r>    -7.7557    18.7093   111.7862 </r>
       <r>    -7.6514     7.0956   112.5260 </r>
       <r>    -7.5472    22.7941   114.9027 </r>
       <r>    -7.4429    36.1007   118.6668 </r>
       <r>    -7.3386    29.2623   121.7179 </r>
       <r>    -7.2344    27.1665   124.5505 </r>
       <r>    -7.1301    23.4317   126.9936 </r>
       <r>    -7.0258    23.0499   129.3970 </r>
       <r>    -6.9216    32.5454   132.7904 </r>
       <r>    -6.8173    32.0618   136.1334 </r>
       <r>    -6.7130    34.5350   139.7343 </r>
       <r>    -6.6088    36.0103   143.4890 </r>
       <r>    -6.5045    27.6568   146.3727 </r>
       <r>    -6.4002    20.7889   148.5403 </r>
       <r>    -6.2959    18.7755   150.4980 </r>
       <r>    -6.1917    17.5113   152.3239 </r>
       <r>    -6.0874    26.4302   155.0797 </r>
       <r>    -5.9831    39.4709   159.1952 </r>
       <r>    -5.8789    29.0194   162.2210 </r>
       <r>    -5.7746    29.8265   165.3309 </r>
       <r>    -5.6703    28.7918   168.3329 </r>
       <r>    -5.5661    22.6876   170.6985 </r>
       <r>    -5.4618    44.2813   175.3156 </r>
       <r>    -5.3575    55.1568   181.0667 </r>
       <r>    -5.2533    46.8358   185.9501 </r>
       <r>    -5.1490    43.9416   190.5318 </r>
       <r>    -5.0447    37.4262   194.4341 </r>
       <r>    -4.9405    30.7552   197.6409 </r>
       <r>    -4.8362    34.7157   201.2606 </r>
       <r>    -4.7319    49.6369   206.4361 </r>
       <r>    -4.6277    62.3609   212.9383 </r>
       <r>    -4.5234    56.5755   218.8373 </r>
       <r>    -4.4191    48.9007   223.9360 </r>
       <r>    -4.3149    50.1152   229.1614 </r>
       <r>    -4.2106    57.8265   235.1908 </r>
       <r>    -4.1063    59.1901   241.3624 </r>
       <r>    -4.0021    55.8790   247.1888 </r>
       <r>    -3.8978    34.9616   250.8342 </r>
       <r>    -3.7935    22.0700   253.1353 </r>
       <r>    -3.6893    26.7232   255.9217 </r>
       <r>    -3.5850    42.8219   260.3866 </r>
       <r>    -3.4807    38.8078   264.4330 </r>
       <r>    -3.3765    24.4682   266.9842 </r>
       <r>    -3.2722    29.5043   270.0606 </r>
       <r>    -3.1679    30.5860   273.2497 </r>
       <r>    -3.0637    34.4268   276.8393 </r>
       <r>    -2.9594    19.1723   278.8383 </r>
       <r>    -2.8551    22.3407   281.1677 </r>
       <r>    -2.7509    31.7014   284.4732 </r>
       <r>    -2.6466    21.2017   286.6838 </r>
       <r>    -2.5423    10.3416   287.7621 </r>
       <r>    -2.4381     2.1762   287.9890 </r>
       <r>    -2.3338     0.1045   287.9999 </r>
       <r>    -2.2295     0.0008   288.0000 </r>
       <r>    -2.1253     0.0000   288.0000 </r>
       <r>    -2.0210     0.0000   288.0000 </r>
       <r>    -1.9167     0.0003   288.0000 </r>
       <r>    -1.8125     0.0293   288.0031 </r>
       <r>    -1.7082     0.4623   288.0513 </r>
       <r>    -1.6039     2.0324   288.2632 </r>
       <r>    -1.4996     4.7128   288.7546 </r>
       <r>    -1.3954     5.4380   289.3216 </r>
       <r>    -1.2911     4.3474   289.7749 </r>
       <r>    -1.1868     7.2034   290.5260 </r>
       <r>    -1.0826     7.4295   291.3006 </r>
       <r>    -0.9783     4.8450   291.8058 </r>
       <r>    -0.8740     7.9322   292.6329 </r>
       <r>    -0.7698     8.4657   293.5156 </r>
       <r>    -0.6655    10.6545   294.6265 </r>
       <r>    -0.5612     7.9171   295.4520 </r>
       <r>    -0.4570     2.2860   295.6903 </r>
       <r>    -0.3527     1.6513   295.8625 </r>
       <r>    -0.2484     1.2855   295.9965 </r>
       <r>    -0.1442     1.2019   296.1219 </r>
       <r>    -0.0399     1.6677   296.2957 </r>
       <r>     0.0644     1.5523   296.4576 </r>
       <r>     0.1686     6.0799   297.0915 </r>
       <r>     0.2729     9.3537   298.0668 </r>
       <r>     0.3772     6.0028   298.6927 </r>
       <r>     0.4814     4.2884   299.1399 </r>
       <r>     0.5857     7.0456   299.8745 </r>
       <r>     0.6900     5.0883   300.4050 </r>
       <r>     0.7942     0.9190   300.5009 </r>
       <r>     0.8985     0.9054   300.5953 </r>
       <r>     1.0028     3.3718   300.9468 </r>
       <r>     1.1070     3.6176   301.3240 </r>
       <r>     1.2113     5.2903   301.8756 </r>
       <r>     1.3156     2.8698   302.1749 </r>
       <r>     1.4198     1.6813   302.3502 </r>
       <r>     1.5241     1.2651   302.4821 </r>
       <r>     1.6284     0.2748   302.5107 </r>
       <r>     1.7326     1.0642   302.6217 </r>
       <r>     1.8369     4.2384   303.0636 </r>
       <r>     1.9412     6.9993   303.7934 </r>
       <r>     2.0454     6.6768   304.4896 </r>
       <r>     2.1497     7.0822   305.2280 </r>
       <r>     2.2540    11.5244   306.4297 </r>
       <r>     2.3582    15.6289   308.0592 </r>
       <r>     2.4625    16.1774   309.7460 </r>
       <r>     2.5668    11.7631   310.9725 </r>
       <r>     2.6710    19.3351   312.9886 </r>
       <r>     2.7753    26.3495   315.7360 </r>
       <r>     2.8796    16.5531   317.4619 </r>
       <r>     2.9838     5.3958   318.0245 </r>
       <r>     3.0881     3.2618   318.3646 </r>
       <r>     3.1924     4.0018   318.7819 </r>
       <r>     3.2966     4.6310   319.2647 </r>
       <r>     3.4009     3.8747   319.6687 </r>
       <r>     3.5052     2.4956   319.9289 </r>
       <r>     3.6095     2.1819   320.1564 </r>
       <r>     3.7137     2.7914   320.4475 </r>
       <r>     3.8180     3.7460   320.8381 </r>
       <r>     3.9223     3.7874   321.2330 </r>
       <r>     4.0265     3.4240   321.5900 </r>
       <r>     4.1308     1.4470   321.7409 </r>
       <r>     4.2351     2.6127   322.0133 </r>
       <r>     4.3393     7.3212   322.7766 </r>
       <r>     4.4436    14.6723   324.3065 </r>
       <r>     4.5479    12.3928   325.5987 </r>
       <r>     4.6521    11.2043   326.7669 </r>
       <r>     4.7564    12.9698   328.1192 </r>
       <r>     4.8607    14.4033   329.6210 </r>
       <r>     4.9649    17.7414   331.4709 </r>
       <r>     5.0692    25.4948   334.1292 </r>
       <r>     5.1735    31.7626   337.4410 </r>
       <r>     5.2777    27.0054   340.2567 </r>
       <r>     5.3820    23.7752   342.7357 </r>
       <r>     5.4863    28.5771   345.7154 </r>
       <r>     5.5905    31.7954   349.0306 </r>
       <r>     5.6948    19.2105   351.0336 </r>
       <r>     5.7991    21.0504   353.2285 </r>
       <r>     5.9033    24.3614   355.7686 </r>
       <r>     6.0076    20.5651   357.9129 </r>
       <r>     6.1119    17.4494   359.7323 </r>
       <r>     6.2161    22.5587   362.0844 </r>
       <r>     6.3204    23.5351   364.5384 </r>
       <r>     6.4247    10.9744   365.6826 </r>
       <r>     6.5289     2.6606   365.9600 </r>
       <r>     6.6332     0.3695   365.9986 </r>
       <r>     6.7375     0.0138   366.0000 </r>
       <r>     6.8417     0.0001   366.0000 </r>
       <r>     6.9460     0.0000   366.0000 </r>
       <r>     7.0503     0.0000   366.0000 </r>
       <r>     7.1545     0.0000   366.0000 </r>
       <r>     7.2588     0.0000   366.0000 </r>
       <r>     7.3631     0.0000   366.0000 </r>
       <r>     7.4673     0.0000   366.0000 </r>
       <r>     7.5716     0.0000   366.0000 </r>
       <r>     7.6759     0.0000   366.0000 </r>
       <r>     7.7801     0.0000   366.0000 </r>
       <r>     7.8844     0.0000   366.0000 </r>
      </set>
     </set>
    </array>
   </total>
  </dos>
 </calculation>
 <structure name="finalpos" >
  <crystal>
   <varray name="basis" >
    <v>       9.61490200       0.00000000       0.00000000 </v>
    <v>       0.00000000       8.32674900       0.00000000 </v>
    <v>       0.00000000       0.00000000      21.56058700 </v>
   </varray>
   <i name="volume">   1726.15947396 </i>
   <varray name="rec_basis" >
    <v>       0.10400522       0.00000000       0.00000000 </v>
    <v>       0.00000000       0.12009489       0.00000000 </v>
    <v>       0.00000000       0.00000000       0.04638093 </v>
   </varray>
  </crystal>
  <varray name="positions" >
   <v>       0.17345600       0.98642000       0.06215200 </v>
   <v>       0.42345600       0.48642000       0.06215200 </v>
   <v>       0.09691300       0.50000000       0.16358100 </v>
   <v>       0.34691300       0.00000000       0.16358100 </v>
   <v>       0.15308800       0.33333300       0.06215200 </v>
   <v>       0.40308800       0.83333300       0.06215200 </v>
   <v>       0.17345600       0.68024500       0.06215200 </v>
   <v>       0.42345600       0.18024600       0.06215200 </v>
   <v>       0.07654400       0.15308700       0.16358100 </v>
   <v>       0.32654400       0.65308700       0.16358100 </v>
   <v>       0.07654400       0.84691200       0.16358100 </v>
   <v>       0.32654400       0.34691200       0.16358100 </v>
   <v>       0.17345600       0.31975500       0.26500900 </v>
   <v>       0.42345600       0.81975500       0.26500900 </v>
   <v>       0.15308700       0.66666700       0.26500900 </v>
   <v>       0.40308800       0.16666700       0.26500900 </v>
   <v>       0.17345600       0.01358000       0.26500900 </v>
   <v>       0.42345600       0.51357900       0.26500900 </v>
   <v>       0.67345600       0.98642000       0.06215200 </v>
   <v>       0.92345600       0.48642000       0.06215200 </v>
   <v>       0.59691300       0.50000000       0.16358100 </v>
   <v>       0.84691300       0.00000000       0.16358100 </v>
   <v>       0.65308800       0.33333300       0.06215200 </v>
   <v>       0.90308800       0.83333300       0.06215200 </v>
   <v>       0.67345600       0.68024500       0.06215200 </v>
   <v>       0.92345600       0.18024500       0.06215200 </v>
   <v>       0.57654400       0.15308700       0.16358100 </v>
   <v>       0.82654400       0.65308700       0.16358100 </v>
   <v>       0.57654400       0.84691200       0.16358100 </v>
   <v>       0.82654400       0.34691200       0.16358100 </v>
   <v>       0.67345600       0.31975500       0.26500900 </v>
   <v>       0.92345600       0.81975500       0.26500900 </v>
   <v>       0.65308700       0.66666700       0.26500900 </v>
   <v>       0.90308800       0.16666700       0.26500900 </v>
   <v>       0.67345600       0.01357900       0.26500900 </v>
   <v>       0.92345600       0.51358000       0.26500900 </v>
   <v>       0.00000000       0.66666700       0.20285800 </v>
   <v>       0.25000000       0.16666700       0.20285800 </v>
   <v>       0.00000000       0.33333300       0.12430300 </v>
   <v>       0.25000000       0.83333300       0.12430300 </v>
   <v>       0.00000000       0.00000000       0.10142900 </v>
   <v>       0.25000000       0.50000000       0.10142900 </v>
   <v>       0.00000000       0.66666700       0.02287500 </v>
   <v>       0.25000000       0.16666700       0.02287500 </v>
   <v>      -0.00000283       0.33334676       0.27581586 </v>
   <v>       0.24999717       0.83334676       0.27581586 </v>
   <v>       0.00000000       0.00000000       0.22573200 </v>
   <v>       0.25000000       0.50000000       0.22573200 </v>
   <v>       0.00000000       0.33333300       0.00000000 </v>
   <v>       0.25000000       0.83333300       0.00000000 </v>
   <v>       0.50000000       0.66666700       0.20285800 </v>
   <v>       0.75000000       0.16666700       0.20285800 </v>
   <v>       0.50000000       0.33333300       0.12430300 </v>
   <v>       0.75000000       0.83333300       0.12430300 </v>
   <v>       0.50000000       0.00000000       0.10142900 </v>
   <v>       0.75000000       0.50000000       0.10142900 </v>
   <v>       0.50000000       0.66666700       0.02287500 </v>
   <v>       0.75000000       0.16666700       0.02287500 </v>
   <v>       0.49999717       0.33334676       0.27581586 </v>
   <v>       0.74999717       0.83334676       0.27581586 </v>
   <v>       0.50000000       0.00000000       0.22573200 </v>
   <v>       0.75000000       0.50000000       0.22573200 </v>
   <v>       0.50000000       0.33333300       0.00000000 </v>
   <v>       0.75000000       0.83333300       0.00000000 </v>
  </varray>
  <varray name="selective"  type="logical" >
   <v type="logical" >  F  F  F </v>
   <v type="logical" >  F  F  F </v>
   <v type="logical" >  F  F  F </v>
   <v type="logical" >  F  F  F </v>
   <v type="logical" >  F  F  F </v>
   <v type="logical" >  F  F  F </v>
   <v type="logical" >  F  F  F </v>
   <v type="logical" >  F  F  F </v>
   <v type="logical" >  F  F  F </v>
   <v type="logical" >  F  F  F </v>
   <v type="logical" >  F  F  F </v>
   <v type="logical" >  F  F  F </v>
   <v type="logical" >  F  F  F </v>
   <v type="logical" >  F  F  F </v>
   <v type="logical" >  F  F  F </v>
   <v type="logical" >  F  F  F </v>
   <v type="logical" >  F  F  F </v>
   <v type="logical" >  F  F  F </v>
   <v type="logical" >  F  F  F </v>
   <v type="logical" >  F  F  F </v>
   <v type="logical" >  F  F  F </v>
   <v type="logical" >  F  F  F </v>
   <v type="logical" >  F  F  F </v>
   <v type="logical" >  F  F  F </v>
   <v type="logical" >  F  F  F </v>
   <v type="logical" >  F  F  F </v>
   <v type="logical" >  F  F  F </v>
   <v type="logical" >  F  F  F </v>
   <v type="logical" >  F  F  F </v>
   <v type="logical" >  F  F  F </v>
   <v type="logical" >  F  F  F </v>
   <v type="logical" >  F  F  F </v>
   <v type="logical" >  F  F  F </v>
   <v type="logical" >  F  F  F </v>
   <v type="logical" >  F  F  F </v>
   <v type="logical" >  F  F  F </v>
   <v type="logical" >  F  F  F </v>
   <v type="logical" >  F  F  F </v>
   <v type="logical" >  F  F  F </v>
   <v type="logical" >  F  F  F </v>
   <v type="logical" >  F  F  F </v>
   <v type="logical" >  F  F  F </v>
   <v type="logical" >  F  F  F </v>
   <v type="logical" >  F  F  F </v>
   <v type="logical" >  T  T  T </v>
   <v type="logical" >  T  T  T </v>
   <v type="logical" >  F  F  F </v>
   <v type="logical" >  F  F  F </v>
   <v type="logical" >  F  F  F </v>
   <v type="logical" >  F  F  F </v>
   <v type="logical" >  F  F  F </v>
   <v type="logical" >  F  F  F </v>
   <v type="logical" >  F  F  F </v>
   <v type="logical" >  F  F  F </v>
   <v type="logical" >  F  F  F </v>
   <v type="logical" >  F  F  F </v>
   <v type="logical" >  F  F  F </v>
   <v type="logical" >  F  F  F </v>
   <v type="logical" >  T  T  T </v>
   <v type="logical" >  T  T  T </v>
   <v type="logical" >  F  F  F </v>
   <v type="logical" >  F  F  F </v>
   <v type="logical" >  F  F  F </v>
   <v type="logical" >  F  F  F </v>
  </varray>
  <nose>
   <v>      -3.00000000       0.00000000       0.00010000       0.00010000 </v>
  </nose>
 </structure>
</modeling>
