ni3al                                   
           1
     9.614902    0.000000    0.000000
     0.000000    8.326749    0.000000
     0.000000    0.000000   21.560587
   O    Al
    36    28
Direct configuration=     1
   0.17345600  0.98642000  0.06215200
   0.42345600  0.48642000  0.06215200
   0.09691300  0.50000000  0.16358100
   0.34691300  0.00000000  0.16358100
   0.15308800  0.33333300  0.06215200
   0.40308800  0.83333300  0.06215200
   0.17345600  0.68024500  0.06215200
   0.42345600  0.18024600  0.06215200
   0.07654400  0.15308700  0.16358100
   0.32654400  0.65308700  0.16358100
   0.07654400  0.84691200  0.16358100
   0.32654400  0.34691200  0.16358100
   0.17345600  0.31975500  0.26500900
   0.42345600  0.81975500  0.26500900
   0.15308700  0.66666700  0.26500900
   0.40308800  0.16666700  0.26500900
   0.17345600  0.01358000  0.26500900
   0.42345600  0.51357900  0.26500900
   0.67345600  0.98642000  0.06215200
   0.92345600  0.48642000  0.06215200
   0.59691300  0.50000000  0.16358100
   0.84691300  0.00000000  0.16358100
   0.65308800  0.33333300  0.06215200
   0.90308800  0.83333300  0.06215200
   0.67345600  0.68024500  0.06215200
   0.92345600  0.18024500  0.06215200
   0.57654400  0.15308700  0.16358100
   0.82654400  0.65308700  0.16358100
   0.57654400  0.84691200  0.16358100
   0.82654400  0.34691200  0.16358100
   0.67345600  0.31975500  0.26500900
   0.92345600  0.81975500  0.26500900
   0.65308700  0.66666700  0.26500900
   0.90308800  0.16666700  0.26500900
   0.67345600  0.01357900  0.26500900
   0.92345600  0.51358000  0.26500900
   0.00000000  0.66666700  0.20285800
   0.25000000  0.16666700  0.20285800
   0.00000000  0.33333300  0.12430300
   0.25000000  0.83333300  0.12430300
   0.00000000  0.00000000  0.10142900
   0.25000000  0.50000000  0.10142900
   0.00000000  0.66666700  0.02287500
   0.25000000  0.16666700  0.02287500
   0.00000000  0.33333300  0.30428600
   0.25000000  0.83333300  0.30428600
   0.00000000  0.00000000  0.22573200
   0.25000000  0.50000000  0.22573200
   0.00000000  0.33333300  0.00000000
   0.25000000  0.83333300  0.00000000
   0.50000000  0.66666700  0.20285800
   0.75000000  0.16666700  0.20285800
   0.50000000  0.33333300  0.12430300
   0.75000000  0.83333300  0.12430300
   0.50000000  0.00000000  0.10142900
   0.75000000  0.50000000  0.10142900
   0.50000000  0.66666700  0.02287500
   0.75000000  0.16666700  0.02287500
   0.50000000  0.33333300  0.30428600
   0.75000000  0.83333300  0.30428600
   0.50000000  0.00000000  0.22573200
   0.75000000  0.50000000  0.22573200
   0.50000000  0.33333300  0.00000000
   0.75000000  0.83333300  0.00000000
Direct configuration=     2
   0.17345600  0.98642000  0.06215200
   0.42345600  0.48642000  0.06215200
   0.09691300  0.50000000  0.16358100
   0.34691300  0.00000000  0.16358100
   0.15308800  0.33333300  0.06215200
   0.40308800  0.83333300  0.06215200
   0.17345600  0.68024500  0.06215200
   0.42345600  0.18024600  0.06215200
   0.07654400  0.15308700  0.16358100
   0.32654400  0.65308700  0.16358100
   0.07654400  0.84691200  0.16358100
   0.32654400  0.34691200  0.16358100
   0.17345600  0.31975500  0.26500900
   0.42345600  0.81975500  0.26500900
   0.15308700  0.66666700  0.26500900
   0.40308800  0.16666700  0.26500900
   0.17345600  0.01358000  0.26500900
   0.42345600  0.51357900  0.26500900
   0.67345600  0.98642000  0.06215200
   0.92345600  0.48642000  0.06215200
   0.59691300  0.50000000  0.16358100
   0.84691300  0.00000000  0.16358100
   0.65308800  0.33333300  0.06215200
   0.90308800  0.83333300  0.06215200
   0.67345600  0.68024500  0.06215200
   0.92345600  0.18024500  0.06215200
   0.57654400  0.15308700  0.16358100
   0.82654400  0.65308700  0.16358100
   0.57654400  0.84691200  0.16358100
   0.82654400  0.34691200  0.16358100
   0.67345600  0.31975500  0.26500900
   0.92345600  0.81975500  0.26500900
   0.65308700  0.66666700  0.26500900
   0.90308800  0.16666700  0.26500900
   0.67345600  0.01357900  0.26500900
   0.92345600  0.51358000  0.26500900
   0.00000000  0.66666700  0.20285800
   0.25000000  0.16666700  0.20285800
   0.00000000  0.33333300  0.12430300
   0.25000000  0.83333300  0.12430300
   0.00000000  0.00000000  0.10142900
   0.25000000  0.50000000  0.10142900
   0.00000000  0.66666700  0.02287500
   0.25000000  0.16666700  0.02287500
  -0.00000133  0.33333946  0.29092938
   0.24999867  0.83333946  0.29092938
   0.00000000  0.00000000  0.22573200
   0.25000000  0.50000000  0.22573200
   0.00000000  0.33333300  0.00000000
   0.25000000  0.83333300  0.00000000
   0.50000000  0.66666700  0.20285800
   0.75000000  0.16666700  0.20285800
   0.50000000  0.33333300  0.12430300
   0.75000000  0.83333300  0.12430300
   0.50000000  0.00000000  0.10142900
   0.75000000  0.50000000  0.10142900
   0.50000000  0.66666700  0.02287500
   0.75000000  0.16666700  0.02287500
   0.49999867  0.33333946  0.29092938
   0.74999867  0.83333946  0.29092938
   0.50000000  0.00000000  0.22573200
   0.75000000  0.50000000  0.22573200
   0.50000000  0.33333300  0.00000000
   0.75000000  0.83333300  0.00000000
Direct configuration=     3
   0.17345600  0.98642000  0.06215200
   0.42345600  0.48642000  0.06215200
   0.09691300  0.50000000  0.16358100
   0.34691300  0.00000000  0.16358100
   0.15308800  0.33333300  0.06215200
   0.40308800  0.83333300  0.06215200
   0.17345600  0.68024500  0.06215200
   0.42345600  0.18024600  0.06215200
   0.07654400  0.15308700  0.16358100
   0.32654400  0.65308700  0.16358100
   0.07654400  0.84691200  0.16358100
   0.32654400  0.34691200  0.16358100
   0.17345600  0.31975500  0.26500900
   0.42345600  0.81975500  0.26500900
   0.15308700  0.66666700  0.26500900
   0.40308800  0.16666700  0.26500900
   0.17345600  0.01358000  0.26500900
   0.42345600  0.51357900  0.26500900
   0.67345600  0.98642000  0.06215200
   0.92345600  0.48642000  0.06215200
   0.59691300  0.50000000  0.16358100
   0.84691300  0.00000000  0.16358100
   0.65308800  0.33333300  0.06215200
   0.90308800  0.83333300  0.06215200
   0.67345600  0.68024500  0.06215200
   0.92345600  0.18024500  0.06215200
   0.57654400  0.15308700  0.16358100
   0.82654400  0.65308700  0.16358100
   0.57654400  0.84691200  0.16358100
   0.82654400  0.34691200  0.16358100
   0.67345600  0.31975500  0.26500900
   0.92345600  0.81975500  0.26500900
   0.65308700  0.66666700  0.26500900
   0.90308800  0.16666700  0.26500900
   0.67345600  0.01357900  0.26500900
   0.92345600  0.51358000  0.26500900
   0.00000000  0.66666700  0.20285800
   0.25000000  0.16666700  0.20285800
   0.00000000  0.33333300  0.12430300
   0.25000000  0.83333300  0.12430300
   0.00000000  0.00000000  0.10142900
   0.25000000  0.50000000  0.10142900
   0.00000000  0.66666700  0.02287500
   0.25000000  0.16666700  0.02287500
  -0.00000254  0.33334537  0.27869850
   0.24999746  0.83334537  0.27869850
   0.00000000  0.00000000  0.22573200
   0.25000000  0.50000000  0.22573200
   0.00000000  0.33333300  0.00000000
   0.25000000  0.83333300  0.00000000
   0.50000000  0.66666700  0.20285800
   0.75000000  0.16666700  0.20285800
   0.50000000  0.33333300  0.12430300
   0.75000000  0.83333300  0.12430300
   0.50000000  0.00000000  0.10142900
   0.75000000  0.50000000  0.10142900
   0.50000000  0.66666700  0.02287500
   0.75000000  0.16666700  0.02287500
   0.49999746  0.33334537  0.27869850
   0.74999746  0.83334537  0.27869850
   0.50000000  0.00000000  0.22573200
   0.75000000  0.50000000  0.22573200
   0.50000000  0.33333300  0.00000000
   0.75000000  0.83333300  0.00000000
Direct configuration=     4
   0.17345600  0.98642000  0.06215200
   0.42345600  0.48642000  0.06215200
   0.09691300  0.50000000  0.16358100
   0.34691300  0.00000000  0.16358100
   0.15308800  0.33333300  0.06215200
   0.40308800  0.83333300  0.06215200
   0.17345600  0.68024500  0.06215200
   0.42345600  0.18024600  0.06215200
   0.07654400  0.15308700  0.16358100
   0.32654400  0.65308700  0.16358100
   0.07654400  0.84691200  0.16358100
   0.32654400  0.34691200  0.16358100
   0.17345600  0.31975500  0.26500900
   0.42345600  0.81975500  0.26500900
   0.15308700  0.66666700  0.26500900
   0.40308800  0.16666700  0.26500900
   0.17345600  0.01358000  0.26500900
   0.42345600  0.51357900  0.26500900
   0.67345600  0.98642000  0.06215200
   0.92345600  0.48642000  0.06215200
   0.59691300  0.50000000  0.16358100
   0.84691300  0.00000000  0.16358100
   0.65308800  0.33333300  0.06215200
   0.90308800  0.83333300  0.06215200
   0.67345600  0.68024500  0.06215200
   0.92345600  0.18024500  0.06215200
   0.57654400  0.15308700  0.16358100
   0.82654400  0.65308700  0.16358100
   0.57654400  0.84691200  0.16358100
   0.82654400  0.34691200  0.16358100
   0.67345600  0.31975500  0.26500900
   0.92345600  0.81975500  0.26500900
   0.65308700  0.66666700  0.26500900
   0.90308800  0.16666700  0.26500900
   0.67345600  0.01357900  0.26500900
   0.92345600  0.51358000  0.26500900
   0.00000000  0.66666700  0.20285800
   0.25000000  0.16666700  0.20285800
   0.00000000  0.33333300  0.12430300
   0.25000000  0.83333300  0.12430300
   0.00000000  0.00000000  0.10142900
   0.25000000  0.50000000  0.10142900
   0.00000000  0.66666700  0.02287500
   0.25000000  0.16666700  0.02287500
  -0.00000279  0.33334656  0.27622628
   0.24999721  0.83334656  0.27622628
   0.00000000  0.00000000  0.22573200
   0.25000000  0.50000000  0.22573200
   0.00000000  0.33333300  0.00000000
   0.25000000  0.83333300  0.00000000
   0.50000000  0.66666700  0.20285800
   0.75000000  0.16666700  0.20285800
   0.50000000  0.33333300  0.12430300
   0.75000000  0.83333300  0.12430300
   0.50000000  0.00000000  0.10142900
   0.75000000  0.50000000  0.10142900
   0.50000000  0.66666700  0.02287500
   0.75000000  0.16666700  0.02287500
   0.49999721  0.33334656  0.27622628
   0.74999721  0.83334656  0.27622628
   0.50000000  0.00000000  0.22573200
   0.75000000  0.50000000  0.22573200
   0.50000000  0.33333300  0.00000000
   0.75000000  0.83333300  0.00000000
Direct configuration=     5
   0.17345600  0.98642000  0.06215200
   0.42345600  0.48642000  0.06215200
   0.09691300  0.50000000  0.16358100
   0.34691300  0.00000000  0.16358100
   0.15308800  0.33333300  0.06215200
   0.40308800  0.83333300  0.06215200
   0.17345600  0.68024500  0.06215200
   0.42345600  0.18024600  0.06215200
   0.07654400  0.15308700  0.16358100
   0.32654400  0.65308700  0.16358100
   0.07654400  0.84691200  0.16358100
   0.32654400  0.34691200  0.16358100
   0.17345600  0.31975500  0.26500900
   0.42345600  0.81975500  0.26500900
   0.15308700  0.66666700  0.26500900
   0.40308800  0.16666700  0.26500900
   0.17345600  0.01358000  0.26500900
   0.42345600  0.51357900  0.26500900
   0.67345600  0.98642000  0.06215200
   0.92345600  0.48642000  0.06215200
   0.59691300  0.50000000  0.16358100
   0.84691300  0.00000000  0.16358100
   0.65308800  0.33333300  0.06215200
   0.90308800  0.83333300  0.06215200
   0.67345600  0.68024500  0.06215200
   0.92345600  0.18024500  0.06215200
   0.57654400  0.15308700  0.16358100
   0.82654400  0.65308700  0.16358100
   0.57654400  0.84691200  0.16358100
   0.82654400  0.34691200  0.16358100
   0.67345600  0.31975500  0.26500900
   0.92345600  0.81975500  0.26500900
   0.65308700  0.66666700  0.26500900
   0.90308800  0.16666700  0.26500900
   0.67345600  0.01357900  0.26500900
   0.92345600  0.51358000  0.26500900
   0.00000000  0.66666700  0.20285800
   0.25000000  0.16666700  0.20285800
   0.00000000  0.33333300  0.12430300
   0.25000000  0.83333300  0.12430300
   0.00000000  0.00000000  0.10142900
   0.25000000  0.50000000  0.10142900
   0.00000000  0.66666700  0.02287500
   0.25000000  0.16666700  0.02287500
  -0.00000283  0.33334676  0.27581586
   0.24999717  0.83334676  0.27581586
   0.00000000  0.00000000  0.22573200
   0.25000000  0.50000000  0.22573200
   0.00000000  0.33333300  0.00000000
   0.25000000  0.83333300  0.00000000
   0.50000000  0.66666700  0.20285800
   0.75000000  0.16666700  0.20285800
   0.50000000  0.33333300  0.12430300
   0.75000000  0.83333300  0.12430300
   0.50000000  0.00000000  0.10142900
   0.75000000  0.50000000  0.10142900
   0.50000000  0.66666700  0.02287500
   0.75000000  0.16666700  0.02287500
   0.49999717  0.33334676  0.27581586
   0.74999717  0.83334676  0.27581586
   0.50000000  0.00000000  0.22573200
   0.75000000  0.50000000  0.22573200
   0.50000000  0.33333300  0.00000000
   0.75000000  0.83333300  0.00000000
