  96  96   0   0
  0.1889791E+02  0.9284262E-09  0.1072054E-08  0.1822724E-08  0.5000000E-15
  1.000000000000000E-004
  CAR 
 ni3al                                   
      8.80161909    -14.48438315  301      2.57252718      1.00000000
    -14.484  0.0000E+00  0.0000E+00
    -14.407  0.0000E+00  0.0000E+00
    -14.329  0.0000E+00  0.0000E+00
    -14.252  0.0000E+00  0.0000E+00
    -14.174  0.0000E+00  0.0000E+00
    -14.096  0.0000E+00  0.0000E+00
    -14.019  0.0000E+00  0.0000E+00
    -13.941  0.1153E-14  0.8947E-16
    -13.863  0.2193E-11  0.1703E-12
    -13.786  0.1285E-08  0.9991E-10
    -13.708  0.2347E-06  0.1832E-07
    -13.631  0.1366E-04  0.1078E-05
    -13.553  0.2657E-03  0.2171E-04
    -13.475  0.1955E-02  0.1734E-03
    -13.398  0.6911E-02  0.7098E-03
    -13.320  0.1451E-01  0.1836E-02
    -13.242  0.1914E-01  0.3322E-02
    -13.165  0.1646E-01  0.4599E-02
    -13.087  0.1183E-01  0.5517E-02
    -13.010  0.1564E-01  0.6731E-02
    -12.932  0.2478E-01  0.8654E-02
    -12.854  0.2404E-01  0.1052E-01
    -12.777  0.1267E-01  0.1150E-01
    -12.699  0.9062E-02  0.1221E-01
    -12.622  0.2209E-01  0.1392E-01
    -12.544  0.3542E-01  0.1667E-01
    -12.466  0.3653E-01  0.1951E-01
    -12.389  0.3234E-01  0.2202E-01
    -12.311  0.3062E-01  0.2439E-01
    -12.233  0.3285E-01  0.2694E-01
    -12.156  0.4084E-01  0.3011E-01
    -12.078  0.4719E-01  0.3378E-01
    -12.001  0.4179E-01  0.3702E-01
    -11.923  0.2877E-01  0.3925E-01
    -11.845  0.2478E-01  0.4118E-01
    -11.768  0.2875E-01  0.4341E-01
    -11.690  0.3537E-01  0.4615E-01
    -11.612  0.4858E-01  0.4993E-01
    -11.535  0.5422E-01  0.5413E-01
    -11.457  0.4927E-01  0.5796E-01
    -11.380  0.5005E-01  0.6184E-01
    -11.302  0.6046E-01  0.6654E-01
    -11.224  0.6485E-01  0.7157E-01
    -11.147  0.5965E-01  0.7620E-01
    -11.069  0.5411E-01  0.8040E-01
    -10.991  0.4759E-01  0.8409E-01
    -10.914  0.5345E-01  0.8824E-01
    -10.836  0.6467E-01  0.9326E-01
    -10.759  0.6625E-01  0.9840E-01
    -10.681  0.5594E-01  0.1027E+00
    -10.603  0.5120E-01  0.1067E+00
    -10.526  0.7722E-01  0.1127E+00
    -10.448  0.9836E-01  0.1203E+00
    -10.371  0.7857E-01  0.1264E+00
    -10.293  0.6279E-01  0.1313E+00
    -10.215  0.7255E-01  0.1370E+00
    -10.138  0.7515E-01  0.1428E+00
    -10.060  0.6158E-01  0.1476E+00
     -9.982  0.5814E-01  0.1521E+00
     -9.905  0.8977E-01  0.1590E+00
     -9.827  0.1291E+00  0.1691E+00
     -9.750  0.1259E+00  0.1788E+00
     -9.672  0.9616E-01  0.1863E+00
     -9.594  0.9222E-01  0.1935E+00
     -9.517  0.9327E-01  0.2007E+00
     -9.439  0.7930E-01  0.2069E+00
     -9.361  0.7037E-01  0.2123E+00
     -9.284  0.8202E-01  0.2187E+00
     -9.206  0.9246E-01  0.2259E+00
     -9.129  0.9729E-01  0.2334E+00
     -9.051  0.1048E+00  0.2415E+00
     -8.973  0.8191E-01  0.2479E+00
     -8.896  0.6108E-01  0.2526E+00
     -8.818  0.6464E-01  0.2577E+00
     -8.741  0.6701E-01  0.2629E+00
     -8.663  0.4749E-01  0.2666E+00
     -8.585  0.2173E-01  0.2682E+00
     -8.508  0.2045E-01  0.2698E+00
     -8.430  0.3728E-01  0.2727E+00
     -8.352  0.3309E-01  0.2753E+00
     -8.275  0.2301E-01  0.2771E+00
     -8.197  0.3471E-01  0.2798E+00
     -8.120  0.4585E-01  0.2833E+00
     -8.042  0.5821E-01  0.2878E+00
     -7.964  0.8501E-01  0.2944E+00
     -7.887  0.9732E-01  0.3020E+00
     -7.809  0.9445E-01  0.3093E+00
     -7.731  0.7968E-01  0.3155E+00
     -7.654  0.4477E-01  0.3190E+00
     -7.576  0.1179E-01  0.3199E+00
     -7.499  0.1171E-02  0.3200E+00
     -7.421  0.4009E-04  0.3200E+00
     -7.343  0.4538E-06  0.3200E+00
     -7.266  0.1660E-08  0.3200E+00
     -7.188  0.1935E-11  0.3200E+00
     -7.110  0.7120E-15  0.3200E+00
     -7.033  0.9079E-15  0.3200E+00
     -6.955  0.2092E-11  0.3200E+00
     -6.878  0.1484E-08  0.3200E+00
     -6.800  0.3270E-06  0.3200E+00
     -6.722  0.2277E-04  0.3200E+00
     -6.645  0.5146E-03  0.3200E+00
     -6.567  0.3981E-02  0.3204E+00
     -6.490  0.1204E-01  0.3213E+00
     -6.412  0.2115E-01  0.3229E+00
     -6.334  0.3407E-01  0.3256E+00
     -6.257  0.3827E-01  0.3285E+00
     -6.179  0.2819E-01  0.3307E+00
     -6.101  0.2928E-01  0.3330E+00
     -6.024  0.4146E-01  0.3362E+00
     -5.946  0.6942E-01  0.3416E+00
     -5.869  0.1040E+00  0.3497E+00
     -5.791  0.1107E+00  0.3583E+00
     -5.713  0.1045E+00  0.3664E+00
     -5.636  0.9359E-01  0.3737E+00
     -5.558  0.1066E+00  0.3819E+00
     -5.480  0.1425E+00  0.3930E+00
     -5.403  0.1488E+00  0.4045E+00
     -5.325  0.1363E+00  0.4151E+00
     -5.248  0.1297E+00  0.4252E+00
     -5.170  0.1191E+00  0.4344E+00
     -5.092  0.1381E+00  0.4451E+00
     -5.015  0.1668E+00  0.4581E+00
     -4.937  0.1219E+00  0.4676E+00
     -4.860  0.6605E-01  0.4727E+00
     -4.782  0.6378E-01  0.4776E+00
     -4.704  0.4782E-01  0.4813E+00
     -4.627  0.2750E-01  0.4835E+00
     -4.549  0.3926E-01  0.4865E+00
     -4.471  0.6217E-01  0.4914E+00
     -4.394  0.6993E-01  0.4968E+00
     -4.316  0.6764E-01  0.5020E+00
     -4.239  0.5984E-01  0.5067E+00
     -4.161  0.4835E-01  0.5104E+00
     -4.083  0.4234E-01  0.5137E+00
     -4.006  0.4431E-01  0.5172E+00
     -3.928  0.6685E-01  0.5223E+00
     -3.850  0.1103E+00  0.5309E+00
     -3.773  0.1035E+00  0.5389E+00
     -3.695  0.7721E-01  0.5449E+00
     -3.618  0.7396E-01  0.5507E+00
     -3.540  0.5648E-01  0.5551E+00
     -3.462  0.6023E-01  0.5597E+00
     -3.385  0.1105E+00  0.5683E+00
     -3.307  0.1568E+00  0.5805E+00
     -3.229  0.1472E+00  0.5919E+00
     -3.152  0.9059E-01  0.5989E+00
     -3.074  0.7065E-01  0.6044E+00
     -2.997  0.9437E-01  0.6117E+00
     -2.919  0.1242E+00  0.6214E+00
     -2.841  0.1480E+00  0.6329E+00
     -2.764  0.1390E+00  0.6437E+00
     -2.686  0.9842E-01  0.6513E+00
     -2.609  0.8069E-01  0.6576E+00
     -2.531  0.1073E+00  0.6659E+00
     -2.453  0.1362E+00  0.6765E+00
     -2.376  0.1092E+00  0.6849E+00
     -2.298  0.7784E-01  0.6910E+00
     -2.220  0.1103E+00  0.6995E+00
     -2.143  0.1153E+00  0.7085E+00
     -2.065  0.9549E-01  0.7159E+00
     -1.988  0.1154E+00  0.7249E+00
     -1.910  0.1308E+00  0.7350E+00
     -1.832  0.1273E+00  0.7449E+00
     -1.755  0.1641E+00  0.7576E+00
     -1.677  0.2101E+00  0.7739E+00
     -1.599  0.1970E+00  0.7892E+00
     -1.522  0.1711E+00  0.8025E+00
     -1.444  0.1700E+00  0.8157E+00
     -1.367  0.1837E+00  0.8300E+00
     -1.289  0.1667E+00  0.8429E+00
     -1.211  0.1346E+00  0.8534E+00
     -1.134  0.1557E+00  0.8654E+00
     -1.056  0.1536E+00  0.8774E+00
     -0.979  0.1305E+00  0.8875E+00
     -0.901  0.1541E+00  0.8995E+00
     -0.823  0.1767E+00  0.9132E+00
     -0.746  0.1554E+00  0.9252E+00
     -0.668  0.1294E+00  0.9353E+00
     -0.590  0.1267E+00  0.9451E+00
     -0.513  0.1394E+00  0.9559E+00
     -0.435  0.1385E+00  0.9667E+00
     -0.358  0.1217E+00  0.9761E+00
     -0.280  0.1090E+00  0.9846E+00
     -0.202  0.1092E+00  0.9931E+00
     -0.125  0.1416E+00  0.1004E+01
     -0.047  0.1679E+00  0.1017E+01
      0.031  0.2000E+00  0.1033E+01
      0.108  0.2313E+00  0.1051E+01
      0.186  0.2365E+00  0.1069E+01
      0.263  0.2034E+00  0.1085E+01
      0.341  0.1628E+00  0.1097E+01
      0.419  0.1503E+00  0.1109E+01
      0.496  0.1437E+00  0.1120E+01
      0.574  0.1218E+00  0.1130E+01
      0.652  0.9104E-01  0.1137E+01
      0.729  0.8147E-01  0.1143E+01
      0.807  0.8430E-01  0.1150E+01
      0.884  0.8097E-01  0.1156E+01
      0.962  0.6198E-01  0.1161E+01
      1.040  0.4831E-01  0.1164E+01
      1.117  0.5635E-01  0.1169E+01
      1.195  0.5455E-01  0.1173E+01
      1.272  0.5028E-01  0.1177E+01
      1.350  0.4704E-01  0.1181E+01
      1.428  0.4253E-01  0.1184E+01
      1.505  0.3156E-01  0.1186E+01
      1.583  0.1982E-01  0.1188E+01
      1.661  0.1829E-01  0.1189E+01
      1.738  0.2916E-01  0.1192E+01
      1.816  0.3024E-01  0.1194E+01
      1.893  0.2170E-01  0.1196E+01
      1.971  0.2452E-01  0.1197E+01
      2.049  0.3311E-01  0.1200E+01
      2.126  0.4179E-01  0.1203E+01
      2.204  0.6511E-01  0.1208E+01
      2.282  0.9785E-01  0.1216E+01
      2.359  0.1449E+00  0.1227E+01
      2.437  0.2162E+00  0.1244E+01
      2.514  0.2642E+00  0.1264E+01
      2.592  0.2669E+00  0.1285E+01
      2.670  0.2814E+00  0.1307E+01
      2.747  0.2965E+00  0.1330E+01
      2.825  0.2293E+00  0.1348E+01
      2.902  0.1188E+00  0.1357E+01
      2.980  0.3373E-01  0.1360E+01
      3.058  0.4117E-02  0.1360E+01
      3.135  0.1870E-03  0.1360E+01
      3.213  0.2924E-05  0.1360E+01
      3.291  0.1502E-07  0.1360E+01
      3.368  0.2464E-10  0.1360E+01
      3.446  0.1265E-13  0.1360E+01
      3.523  0.0000E+00  0.1360E+01
      3.601  0.0000E+00  0.1360E+01
      3.679  0.0000E+00  0.1360E+01
      3.756  0.8737E-15  0.1360E+01
      3.834  0.2024E-11  0.1360E+01
      3.912  0.1442E-08  0.1360E+01
      3.989  0.3186E-06  0.1360E+01
      4.067  0.2213E-04  0.1360E+01
      4.144  0.4921E-03  0.1360E+01
      4.222  0.3621E-02  0.1360E+01
      4.300  0.9666E-02  0.1361E+01
      4.377  0.1340E-01  0.1362E+01
      4.455  0.1753E-01  0.1363E+01
      4.533  0.1935E-01  0.1365E+01
      4.610  0.1888E-01  0.1366E+01
      4.688  0.2264E-01  0.1368E+01
      4.765  0.3487E-01  0.1371E+01
      4.843  0.4020E-01  0.1374E+01
      4.921  0.2594E-01  0.1376E+01
      4.998  0.1863E-01  0.1377E+01
      5.076  0.2113E-01  0.1379E+01
      5.153  0.1656E-01  0.1380E+01
      5.231  0.1353E-01  0.1381E+01
      5.309  0.1442E-01  0.1383E+01
      5.386  0.1756E-01  0.1384E+01
      5.464  0.4337E-01  0.1387E+01
      5.542  0.8172E-01  0.1394E+01
      5.619  0.8080E-01  0.1400E+01
      5.697  0.5988E-01  0.1405E+01
      5.774  0.6492E-01  0.1410E+01
      5.852  0.6890E-01  0.1415E+01
      5.930  0.7768E-01  0.1421E+01
      6.007  0.1027E+00  0.1429E+01
      6.085  0.9236E-01  0.1436E+01
      6.163  0.6204E-01  0.1441E+01
      6.240  0.4676E-01  0.1445E+01
      6.318  0.4794E-01  0.1448E+01
      6.395  0.6892E-01  0.1454E+01
      6.473  0.9841E-01  0.1461E+01
      6.551  0.1261E+00  0.1471E+01
      6.628  0.1417E+00  0.1482E+01
      6.706  0.1181E+00  0.1491E+01
      6.783  0.9973E-01  0.1499E+01
      6.861  0.1059E+00  0.1507E+01
      6.939  0.1170E+00  0.1516E+01
      7.016  0.1136E+00  0.1525E+01
      7.094  0.1338E+00  0.1535E+01
      7.172  0.1765E+00  0.1549E+01
      7.249  0.1969E+00  0.1564E+01
      7.327  0.1728E+00  0.1578E+01
      7.404  0.1264E+00  0.1588E+01
      7.482  0.9722E-01  0.1595E+01
      7.560  0.6965E-01  0.1601E+01
      7.637  0.3732E-01  0.1604E+01
      7.715  0.2149E-01  0.1605E+01
      7.793  0.1336E-01  0.1606E+01
      7.870  0.4794E-02  0.1607E+01
      7.948  0.6987E-03  0.1607E+01
      8.025  0.3565E-04  0.1607E+01
      8.103  0.5967E-06  0.1607E+01
      8.181  0.3174E-08  0.1607E+01
      8.258  0.5272E-11  0.1607E+01
      8.336  0.2705E-14  0.1607E+01
      8.414  0.0000E+00  0.1607E+01
      8.491  0.0000E+00  0.1607E+01
      8.569  0.0000E+00  0.1607E+01
      8.646  0.0000E+00  0.1607E+01
      8.724  0.0000E+00  0.1607E+01
      8.802  0.0000E+00  0.1607E+01
