   96   96  300    1
  0.1889791E+02  0.9284262E-09  0.1072054E-08  0.1822724E-08  0.5000000E-15
  1.000000000000000E-004
  CAR 
 ni3al                                   
    384      6    241
 
  0.0000000E+00  0.0000000E+00  0.0000000E+00  0.8333333E-01
      1        -13.425929   1.000000
      2        -12.609794   1.000000
      3        -12.386573   1.000000
      4        -12.386547   1.000000
      5        -12.051904   1.000000
      6        -12.051772   1.000000
      7        -11.592865   1.000000
      8        -11.592834   1.000000
      9        -11.538372   1.000000
     10        -11.267716   1.000000
     11        -11.267586   1.000000
     12        -11.114669   1.000000
     13        -11.114641   1.000000
     14        -11.114540   1.000000
     15        -11.114521   1.000000
     16        -10.573222   1.000000
     17        -10.573198   1.000000
     18        -10.381762   1.000000
     19        -10.381724   1.000000
     20        -10.381634   1.000000
     21        -10.381608   1.000000
     22        -10.271808   1.000000
     23        -10.271677   1.000000
     24        -10.184638   1.000000
     25         -9.998099   1.000000
     26         -9.708488   1.000000
     27         -9.511151   1.000000
     28         -9.511124   1.000000
     29         -9.511030   1.000000
     30         -9.511013   1.000000
     31         -9.442597   1.000000
     32         -9.442538   1.000000
     33         -9.116361   1.000000
     34         -9.112070   1.000000
     35         -9.111985   1.000000
     36         -9.065363   1.000000
     37         -9.065327   1.000000
     38         -8.781139   1.000000
     39         -8.780993   1.000000
     40         -8.664829   1.000000
     41         -8.664737   1.000000
     42         -8.133700   1.000000
     43         -8.133663   1.000000
     44         -8.133571   1.000000
     45         -8.133545   1.000000
     46         -8.000418   1.000000
     47         -7.737009   1.000000
     48         -7.736912   1.000000
     49         -6.505109   1.000000
     50         -5.956598   1.000000
     51         -5.860565   1.000000
     52         -5.851806   1.000000
     53         -5.851748   1.000000
     54         -5.685745   1.000000
     55         -5.685740   1.000000
     56         -5.685732   1.000000
     57         -5.685727   1.000000
     58         -5.555266   1.000000
     59         -5.555195   1.000000
     60         -5.532089   1.000000
     61         -5.299333   1.000000
     62         -5.299327   1.000000
     63         -5.299318   1.000000
     64         -5.299312   1.000000
     65         -5.153733   1.000000
     66         -5.153721   1.000000
     67         -5.023480   1.000000
     68         -5.023429   1.000000
     69         -4.873603   1.000000
     70         -4.873531   1.000000
     71         -4.576817   1.000000
     72         -4.547434   1.000000
     73         -4.547345   1.000000
     74         -4.501015   1.000000
     75         -4.501005   1.000000
     76         -4.500996   1.000000
     77         -4.500980   1.000000
     78         -3.800392   1.000000
     79         -3.800366   1.000000
     80         -3.789137   1.000000
     81         -3.789072   1.000000
     82         -3.739465   1.000000
     83         -3.739400   1.000000
     84         -3.621725   1.000000
     85         -3.621724   1.000000
     86         -3.518758   1.000000
     87         -3.425465   1.000000
     88         -3.425449   1.000000
     89         -3.425443   1.000000
     90         -3.425433   1.000000
     91         -3.311597   1.000000
     92         -3.311526   1.000000
     93         -3.001068   1.000000
     94         -3.001022   1.000000
     95         -2.858094   1.000000
     96         -2.858071   1.000000
     97         -2.858046   1.000000
     98         -2.858029   1.000000
     99         -2.774023   1.000000
    100         -2.774008   1.000000
    101         -2.705703   1.000000
    102         -2.705697   1.000000
    103         -2.532351   1.000000
    104         -2.532342   1.000000
    105         -2.257579   1.000000
    106         -2.254916   1.000000
    107         -2.254858   1.000000
    108         -1.981755   1.000000
    109         -1.981748   1.000000
    110         -1.822658   1.000000
    111         -1.713692   1.000000
    112         -1.713688   1.000000
    113         -1.713626   1.000000
    114         -1.713624   1.000000
    115         -1.694406   1.000000
    116         -1.694393   1.000000
    117         -1.640769   1.000000
    118         -1.640761   1.000000
    119         -1.524649   1.000000
    120         -1.524633   1.000000
    121         -1.524565   1.000000
    122         -1.524554   1.000000
    123         -1.402020   1.000000
    124         -1.349952   1.000000
    125         -1.349929   1.000000
    126         -1.278011   1.000000
    127         -1.277954   1.000000
    128         -1.136536   1.000000
    129         -1.136525   1.000000
    130         -1.049488   1.000000
    131         -1.049471   1.000000
    132         -1.049394   1.000000
    133         -1.049383   1.000000
    134         -1.014480   1.000000
    135         -1.014409   1.000000
    136         -0.929755   1.000000
    137         -0.786205   1.000000
    138         -0.749884   1.000000
    139         -0.749857   1.000000
    140         -0.632345   1.000000
    141         -0.632329   1.000000
    142         -0.539559   1.000000
    143         -0.539553   1.000000
    144         -0.530916   1.000000
    145         -0.530910   1.000000
    146         -0.530838   1.000000
    147         -0.530834   1.000000
    148         -0.160736   1.000000
    149         -0.129716   1.000000
    150         -0.129626   1.000000
    151         -0.109316   1.000000
    152         -0.052853   1.000000
    153         -0.052823   1.000000
    154         -0.000774   1.000000
    155         -0.000768   1.000000
    156          0.115467   1.000000
    157          0.115484   1.000000
    158          0.115528   1.000000
    159          0.115543   1.000000
    160          0.267097   1.000000
    161          0.267156   1.000000
    162          0.497603   1.000000
    163          0.497619   1.000000
    164          0.514806   1.000000
    165          0.514847   1.000000
    166          0.524057   1.000000
    167          0.524097   1.000000
    168          0.587961   1.000000
    169          0.587976   1.000000
    170          0.588052   1.000000
    171          0.588061   1.000000
    172          0.818592   1.000000
    173          0.968472   1.000000
    174          0.968780   1.000000
    175          1.313139   1.000000
    176          1.313997   1.000000
    177          1.415853   1.000000
    178          1.415889   1.000000
    179          2.029673   1.000000
    180          2.047315   1.000000
    181          2.084365   1.000000
    182          2.085340   1.000000
    183          2.400721   0.992444
    184          2.400726   0.992443
    185          2.400771   0.992430
    186          2.400776   0.992428
    187          2.474087   0.918063
    188          2.474098   0.918039
    189          2.501298   0.843114
    190          2.526114   0.744212
    191          2.526151   0.744043
    192          2.608836   0.303807
    193          2.608841   0.303782
    194          2.608869   0.303641
    195          2.608873   0.303622
    196          2.644479   0.154444
    197          2.644548   0.154215
    198          2.681683   0.061331
    199          2.681744   0.061227
    200          2.725316   0.015357
    201          2.725345   0.015341
    202          2.779920   0.001679
    203          2.779926   0.001678
    204          2.828164   0.000150
    205          4.284351   0.000000
    206          4.997292   0.000000
    207          4.997295   0.000000
    208          4.997316   0.000000
    209          4.997317   0.000000
    210          5.573090   0.000000
    211          5.575552   0.000000
    212          5.575567   0.000000
    213          5.946661   0.000000
    214          5.946713   0.000000
    215          5.966243   0.000000
    216          5.973733   0.000000
    217          5.973794   0.000000
    218          6.243273   0.000000
    219          6.243284   0.000000
    220          6.243297   0.000000
    221          6.243307   0.000000
    222          6.546480   0.000000
    223          6.546492   0.000000
    224          6.564777   0.000000
    225          6.564840   0.000000
    226          6.618659   0.000000
    227          6.757725   0.000000
    228          6.757732   0.000000
    229          6.757733   0.000000
    230          6.757741   0.000000
    231          6.972160   0.000000
    232          7.080827   0.000000
    233          7.105703   0.000000
    234          7.105767   0.000000
    235          7.169981   0.000000
    236          7.170041   0.000000
    237          7.360808   0.000000
    238          7.361723   0.000000
    239          7.363974   0.000000
    240          7.367099   0.000000
    241          7.404061   0.000000
 
  0.2500000E+00  0.0000000E+00  0.0000000E+00  0.1666667E+00
      1        -13.337438   1.000000
      2        -12.641087   1.000000
      3        -12.522838   1.000000
      4        -12.302112   1.000000
      5        -12.302087   1.000000
      6        -11.840678   1.000000
      7        -11.646891   1.000000
      8        -11.646866   1.000000
      9        -11.510588   1.000000
     10        -11.510557   1.000000
     11        -11.454836   1.000000
     12        -11.331109   1.000000
     13        -10.878499   1.000000
     14        -10.878467   1.000000
     15        -10.805185   1.000000
     16        -10.576797   1.000000
     17        -10.530878   1.000000
     18        -10.530857   1.000000
     19        -10.496362   1.000000
     20        -10.496337   1.000000
     21        -10.116245   1.000000
     22         -9.922223   1.000000
     23         -9.922200   1.000000
     24         -9.916465   1.000000
     25         -9.894789   1.000000
     26         -9.894759   1.000000
     27         -9.790030   1.000000
     28         -9.658186   1.000000
     29         -9.643392   1.000000
     30         -9.640734   1.000000
     31         -9.286576   1.000000
     32         -9.262503   1.000000
     33         -9.227057   1.000000
     34         -9.198333   1.000000
     35         -9.198314   1.000000
     36         -9.061529   1.000000
     37         -8.992281   1.000000
     38         -8.992245   1.000000
     39         -8.756927   1.000000
     40         -8.743943   1.000000
     41         -8.463903   1.000000
     42         -8.463868   1.000000
     43         -8.233269   1.000000
     44         -7.982260   1.000000
     45         -7.982240   1.000000
     46         -7.958024   1.000000
     47         -7.755868   1.000000
     48         -7.718495   1.000000
     49         -6.431478   1.000000
     50         -6.286837   1.000000
     51         -6.286831   1.000000
     52         -5.953474   1.000000
     53         -5.891480   1.000000
     54         -5.804418   1.000000
     55         -5.794965   1.000000
     56         -5.794957   1.000000
     57         -5.787519   1.000000
     58         -5.582540   1.000000
     59         -5.502500   1.000000
     60         -5.465753   1.000000
     61         -5.302969   1.000000
     62         -5.302964   1.000000
     63         -5.274477   1.000000
     64         -5.154835   1.000000
     65         -5.117604   1.000000
     66         -5.117601   1.000000
     67         -5.109697   1.000000
     68         -5.109686   1.000000
     69         -5.040324   1.000000
     70         -5.018252   1.000000
     71         -4.632069   1.000000
     72         -4.526173   1.000000
     73         -4.485095   1.000000
     74         -4.485089   1.000000
     75         -4.391504   1.000000
     76         -4.307284   1.000000
     77         -4.138416   1.000000
     78         -4.138393   1.000000
     79         -4.002844   1.000000
     80         -3.726572   1.000000
     81         -3.692559   1.000000
     82         -3.631468   1.000000
     83         -3.631457   1.000000
     84         -3.629776   1.000000
     85         -3.629775   1.000000
     86         -3.461959   1.000000
     87         -3.393704   1.000000
     88         -3.326197   1.000000
     89         -3.272533   1.000000
     90         -3.153733   1.000000
     91         -3.153726   1.000000
     92         -3.032845   1.000000
     93         -2.957682   1.000000
     94         -2.888488   1.000000
     95         -2.877960   1.000000
     96         -2.714795   1.000000
     97         -2.714790   1.000000
     98         -2.603654   1.000000
     99         -2.603636   1.000000
    100         -2.579827   1.000000
    101         -2.579821   1.000000
    102         -2.388098   1.000000
    103         -2.388081   1.000000
    104         -2.272918   1.000000
    105         -2.214654   1.000000
    106         -2.084644   1.000000
    107         -2.033171   1.000000
    108         -1.976250   1.000000
    109         -1.974251   1.000000
    110         -1.913786   1.000000
    111         -1.799701   1.000000
    112         -1.738049   1.000000
    113         -1.738038   1.000000
    114         -1.731993   1.000000
    115         -1.731977   1.000000
    116         -1.656669   1.000000
    117         -1.650470   1.000000
    118         -1.650458   1.000000
    119         -1.540010   1.000000
    120         -1.539997   1.000000
    121         -1.521593   1.000000
    122         -1.476450   1.000000
    123         -1.453181   1.000000
    124         -1.453177   1.000000
    125         -1.377503   1.000000
    126         -1.366911   1.000000
    127         -1.358764   1.000000
    128         -1.358755   1.000000
    129         -1.343742   1.000000
    130         -1.161323   1.000000
    131         -1.161306   1.000000
    132         -1.108753   1.000000
    133         -1.015638   1.000000
    134         -0.922648   1.000000
    135         -0.896313   1.000000
    136         -0.848121   1.000000
    137         -0.848113   1.000000
    138         -0.841996   1.000000
    139         -0.841990   1.000000
    140         -0.802174   1.000000
    141         -0.761528   1.000000
    142         -0.668423   1.000000
    143         -0.668417   1.000000
    144         -0.619423   1.000000
    145         -0.426953   1.000000
    146         -0.426933   1.000000
    147         -0.346485   1.000000
    148         -0.346482   1.000000
    149         -0.268416   1.000000
    150         -0.106555   1.000000
    151         -0.016256   1.000000
    152         -0.013214   1.000000
    153         -0.008364   1.000000
    154         -0.008346   1.000000
    155          0.022303   1.000000
    156          0.035878   1.000000
    157          0.035895   1.000000
    158          0.071343   1.000000
    159          0.195669   1.000000
    160          0.195686   1.000000
    161          0.218463   1.000000
    162          0.240348   1.000000
    163          0.240352   1.000000
    164          0.318074   1.000000
    165          0.325936   1.000000
    166          0.415038   1.000000
    167          0.448239   1.000000
    168          0.467879   1.000000
    169          0.467888   1.000000
    170          0.594192   1.000000
    171          0.734652   1.000000
    172          0.747050   1.000000
    173          0.747063   1.000000
    174          0.920333   1.000000
    175          1.080452   1.000000
    176          1.080485   1.000000
    177          1.202519   1.000000
    178          1.203681   1.000000
    179          1.743291   1.000000
    180          2.006587   1.000000
    181          2.139023   1.000000
    182          2.194087   1.000000
    183          2.200637   1.000000
    184          2.200643   1.000000
    185          2.418093   0.985520
    186          2.442730   0.966792
    187          2.498276   0.853157
    188          2.498279   0.853147
    189          2.545611   0.648270
    190          2.545617   0.648237
    191          2.566854   0.531975
    192          2.566864   0.531915
    193          2.582648   0.443093
    194          2.587499   0.416157
    195          2.636259   0.183713
    196          2.668520   0.087305
    197          2.707033   0.028573
    198          2.716180   0.021100
    199          2.738654   0.009402
    200          2.738658   0.009401
    201          2.780031   0.001670
    202          2.780036   0.001670
    203          2.800903   0.000620
    204          2.850711   0.000042
    205          4.470718   0.000000
    206          4.470722   0.000000
    207          4.706872   0.000000
    208          5.713892   0.000000
    209          5.762696   0.000000
    210          5.762703   0.000000
    211          5.780156   0.000000
    212          5.802719   0.000000
    213          5.802720   0.000000
    214          6.009690   0.000000
    215          6.009705   0.000000
    216          6.045403   0.000000
    217          6.159847   0.000000
    218          6.159856   0.000000
    219          6.228698   0.000000
    220          6.350680   0.000000
    221          6.360710   0.000000
    222          6.409989   0.000000
    223          6.834180   0.000000
    224          6.834185   0.000000
    225          6.866312   0.000000
    226          6.866324   0.000000
    227          6.896823   0.000000
    228          6.903544   0.000000
    229          6.920468   0.000000
    230          6.920479   0.000000
    231          6.954585   0.000000
    232          7.085278   0.000000
    233          7.116354   0.000000
    234          7.150258   0.000000
    235          7.255720   0.000000
    236          7.255837   0.000000
    237          7.449620   0.000000
    238          7.449637   0.000000
    239          7.469508   0.000000
    240          7.631404   0.000000
    241          7.661338   0.000000
 
  0.5000000E+00  0.0000000E+00  0.0000000E+00  0.8333333E-01
      1        -13.073815   1.000000
      2        -13.073814   1.000000
      3        -12.264112   1.000000
      4        -12.264110   1.000000
      5        -12.051861   1.000000
      6        -12.051843   1.000000
      7        -12.051833   1.000000
      8        -12.051815   1.000000
      9        -11.267659   1.000000
     10        -11.267636   1.000000
     11        -11.267626   1.000000
     12        -11.267606   1.000000
     13        -11.207103   1.000000
     14        -11.207103   1.000000
     15        -10.532967   1.000000
     16        -10.532962   1.000000
     17        -10.271745   1.000000
     18        -10.271729   1.000000
     19        -10.271708   1.000000
     20        -10.271693   1.000000
     21        -10.184631   1.000000
     22        -10.184619   1.000000
     23         -9.920888   1.000000
     24         -9.920884   1.000000
     25         -9.842470   1.000000
     26         -9.842448   1.000000
     27         -9.708616   1.000000
     28         -9.708589   1.000000
     29         -9.675110   1.000000
     30         -9.675108   1.000000
     31         -9.462089   1.000000
     32         -9.462083   1.000000
     33         -9.116614   1.000000
     34         -9.116594   1.000000
     35         -9.086312   1.000000
     36         -9.086303   1.000000
     37         -8.915014   1.000000
     38         -8.915011   1.000000
     39         -8.781096   1.000000
     40         -8.781069   1.000000
     41         -8.781050   1.000000
     42         -8.781026   1.000000
     43         -8.000142   1.000000
     44         -8.000139   1.000000
     45         -7.852609   1.000000
     46         -7.852601   1.000000
     47         -7.820566   1.000000
     48         -7.820551   1.000000
     49         -6.505167   1.000000
     50         -6.505166   1.000000
     51         -6.223997   1.000000
     52         -6.223997   1.000000
     53         -5.956455   1.000000
     54         -5.956451   1.000000
     55         -5.724095   1.000000
     56         -5.724085   1.000000
     57         -5.578063   1.000000
     58         -5.578062   1.000000
     59         -5.548202   1.000000
     60         -5.548197   1.000000
     61         -5.532348   1.000000
     62         -5.532345   1.000000
     63         -5.283231   1.000000
     64         -5.283229   1.000000
     65         -5.224287   1.000000
     66         -5.224282   1.000000
     67         -5.023494   1.000000
     68         -5.023489   1.000000
     69         -5.023481   1.000000
     70         -5.023476   1.000000
     71         -4.822418   1.000000
     72         -4.822411   1.000000
     73         -4.575887   1.000000
     74         -4.575879   1.000000
     75         -4.410565   1.000000
     76         -4.410542   1.000000
     77         -3.800464   1.000000
     78         -3.800461   1.000000
     79         -3.800452   1.000000
     80         -3.800450   1.000000
     81         -3.724356   1.000000
     82         -3.724354   1.000000
     83         -3.320806   1.000000
     84         -3.320804   1.000000
     85         -3.156677   1.000000
     86         -3.156676   1.000000
     87         -3.001148   1.000000
     88         -3.001141   1.000000
     89         -3.001125   1.000000
     90         -3.001119   1.000000
     91         -2.971748   1.000000
     92         -2.971747   1.000000
     93         -2.774246   1.000000
     94         -2.774236   1.000000
     95         -2.774231   1.000000
     96         -2.774226   1.000000
     97         -2.735268   1.000000
     98         -2.735259   1.000000
     99         -2.621664   1.000000
    100         -2.621658   1.000000
    101         -2.265748   1.000000
    102         -2.265736   1.000000
    103         -2.257538   1.000000
    104         -2.257523   1.000000
    105         -2.227940   1.000000
    106         -2.227938   1.000000
    107         -2.079085   1.000000
    108         -2.079078   1.000000
    109         -1.981721   1.000000
    110         -1.981715   1.000000
    111         -1.981700   1.000000
    112         -1.981693   1.000000
    113         -1.822864   1.000000
    114         -1.822845   1.000000
    115         -1.757776   1.000000
    116         -1.757771   1.000000
    117         -1.641180   1.000000
    118         -1.641173   1.000000
    119         -1.641151   1.000000
    120         -1.641149   1.000000
    121         -1.402009   1.000000
    122         -1.402005   1.000000
    123         -1.349978   1.000000
    124         -1.349974   1.000000
    125         -1.349949   1.000000
    126         -1.349945   1.000000
    127         -1.322103   1.000000
    128         -1.322095   1.000000
    129         -1.221705   1.000000
    130         -1.221702   1.000000
    131         -1.144909   1.000000
    132         -1.144906   1.000000
    133         -0.873508   1.000000
    134         -0.873505   1.000000
    135         -0.814320   1.000000
    136         -0.814310   1.000000
    137         -0.786420   1.000000
    138         -0.786410   1.000000
    139         -0.749490   1.000000
    140         -0.749481   1.000000
    141         -0.749456   1.000000
    142         -0.749445   1.000000
    143         -0.596012   1.000000
    144         -0.596009   1.000000
    145         -0.539683   1.000000
    146         -0.539678   1.000000
    147         -0.539653   1.000000
    148         -0.539649   1.000000
    149         -0.321874   1.000000
    150         -0.321873   1.000000
    151         -0.303309   1.000000
    152         -0.303308   1.000000
    153         -0.161059   1.000000
    154         -0.161058   1.000000
    155         -0.109444   1.000000
    156         -0.109418   1.000000
    157          0.119517   1.000000
    158          0.119520   1.000000
    159          0.121136   1.000000
    160          0.121145   1.000000
    161          0.193270   1.000000
    162          0.193294   1.000000
    163          0.267218   1.000000
    164          0.267221   1.000000
    165          0.267256   1.000000
    166          0.267261   1.000000
    167          0.416698   1.000000
    168          0.416704   1.000000
    169          0.524674   1.000000
    170          0.524684   1.000000
    171          0.524732   1.000000
    172          0.524742   1.000000
    173          0.818062   1.000000
    174          0.818075   1.000000
    175          0.828691   1.000000
    176          0.828692   1.000000
    177          1.064108   1.000000
    178          1.064112   1.000000
    179          1.719221   1.000000
    180          1.719234   1.000000
    181          2.047540   1.000000
    182          2.047545   1.000000
    183          2.281623   0.999981
    184          2.281625   0.999981
    185          2.401692   0.992153
    186          2.401694   0.992153
    187          2.484392   0.893696
    188          2.484393   0.893692
    189          2.501321   0.843036
    190          2.501321   0.843035
    191          2.681630   0.061422
    192          2.681641   0.061404
    193          2.681662   0.061367
    194          2.681669   0.061355
    195          2.687716   0.051655
    196          2.687717   0.051653
    197          2.709444   0.026416
    198          2.709445   0.026415
    199          2.725317   0.015356
    200          2.725321   0.015354
    201          2.725326   0.015352
    202          2.725329   0.015350
    203          2.850898   0.000041
    204          2.850899   0.000041
    205          4.284408   0.000000
    206          4.284412   0.000000
    207          5.377824   0.000000
    208          5.377826   0.000000
    209          5.573208   0.000000
    210          5.573215   0.000000
    211          5.900291   0.000000
    212          5.900301   0.000000
    213          5.965929   0.000000
    214          5.965938   0.000000
    215          6.564775   0.000000
    216          6.564786   0.000000
    217          6.564821   0.000000
    218          6.564833   0.000000
    219          6.592815   0.000000
    220          6.592817   0.000000
    221          6.618752   0.000000
    222          6.618753   0.000000
    223          6.793235   0.000000
    224          6.793238   0.000000
    225          7.095706   0.000000
    226          7.095719   0.000000
    227          7.125083   0.000000
    228          7.125085   0.000000
    229          7.169960   0.000000
    230          7.169967   0.000000
    231          7.169980   0.000000
    232          7.169989   0.000000
    233          7.280332   0.000000
    234          7.280335   0.000000
    235          7.379939   0.000000
    236          7.379946   0.000000
    237          7.379963   0.000000
    238          7.379970   0.000000
    239          7.411829   0.000000
    240          7.411830   0.000000
    241          7.733181   0.000000
 
  0.0000000E+00  0.3333333E+00  0.0000000E+00  0.1666667E+00
      1        -13.308011   1.000000
      2        -12.957605   1.000000
      3        -12.493931   1.000000
      4        -12.150243   1.000000
      5        -11.943496   1.000000
      6        -11.943364   1.000000
      7        -11.624128   1.000000
      8        -11.624061   1.000000
      9        -11.623996   1.000000
     10        -11.427091   1.000000
     11        -11.163687   1.000000
     12        -11.163557   1.000000
     13        -11.098573   1.000000
     14        -10.859151   1.000000
     15        -10.859047   1.000000
     16        -10.859019   1.000000
     17        -10.754866   1.000000
     18        -10.465058   1.000000
     19        -10.464945   1.000000
     20        -10.178197   1.000000
     21        -10.178067   1.000000
     22        -10.072640   1.000000
     23         -9.909628   1.000000
     24         -9.909530   1.000000
     25         -9.909486   1.000000
     26         -9.889380   1.000000
     27         -9.800646   1.000000
     28         -9.800537   1.000000
     29         -9.798174   1.000000
     30         -9.798084   1.000000
     31         -9.569790   1.000000
     32         -9.303634   1.000000
     33         -9.287138   1.000000
     34         -9.287051   1.000000
     35         -9.084697   1.000000
     36         -9.084599   1.000000
     37         -8.777999   1.000000
     38         -8.777912   1.000000
     39         -8.695761   1.000000
     40         -8.695617   1.000000
     41         -8.457725   1.000000
     42         -8.457658   1.000000
     43         -8.457577   1.000000
     44         -8.024416   1.000000
     45         -7.855738   1.000000
     46         -7.855636   1.000000
     47         -7.739355   1.000000
     48         -7.739262   1.000000
     49         -6.144470   1.000000
     50         -5.908569   1.000000
     51         -5.908551   1.000000
     52         -5.898883   1.000000
     53         -5.898841   1.000000
     54         -5.763501   1.000000
     55         -5.715829   1.000000
     56         -5.519886   1.000000
     57         -5.519840   1.000000
     58         -5.491382   1.000000
     59         -5.482734   1.000000
     60         -5.482706   1.000000
     61         -5.315952   1.000000
     62         -5.315944   1.000000
     63         -5.315932   1.000000
     64         -5.088955   1.000000
     65         -5.072595   1.000000
     66         -5.072559   1.000000
     67         -5.066574   1.000000
     68         -5.066505   1.000000
     69         -4.995476   1.000000
     70         -4.995465   1.000000
     71         -4.821355   1.000000
     72         -4.821236   1.000000
     73         -4.821218   1.000000
     74         -4.298195   1.000000
     75         -4.298130   1.000000