       N       E                     dE             d eps       ncg     rms          rms(c)
DAV:   1     0.209311869612E+04    0.20931E+04   -0.16352E+05  2892   0.136E+03
DAV:   2    -0.462390875340E+03   -0.25555E+04   -0.24410E+04  3714   0.271E+02
DAV:   3    -0.765060160391E+03   -0.30267E+03   -0.29756E+03  3656   0.878E+01
DAV:   4    -0.781839607831E+03   -0.16779E+02   -0.16732E+02  3928   0.221E+01
DAV:   5    -0.782382344967E+03   -0.54274E+00   -0.54223E+00  3912   0.382E+00    0.501E+01
RMM:   6    -0.698573633150E+03    0.83809E+02   -0.28951E+02  2915   0.234E+01    0.276E+01
RMM:   7    -0.678922519932E+03    0.19651E+02   -0.55894E+01  2979   0.133E+01    0.165E+01
RMM:   8    -0.678359304189E+03    0.56322E+00   -0.27482E+01  3258   0.762E+00    0.172E+01
RMM:   9    -0.677609603825E+03    0.74970E+00   -0.36174E+00  2927   0.335E+00    0.133E+01
RMM:  10    -0.673210675995E+03    0.43989E+01   -0.21862E+00  2929   0.248E+00    0.563E+00
RMM:  11    -0.672961736174E+03    0.24894E+00   -0.36902E-01  3285   0.104E+00    0.460E+00
RMM:  12    -0.672882256875E+03    0.79479E-01   -0.96863E-01  3034   0.129E+00    0.463E+00
RMM:  13    -0.672695674269E+03    0.18658E+00   -0.20902E-01  2912   0.720E-01    0.321E+00
RMM:  14    -0.672569398076E+03    0.12628E+00   -0.58893E-02  3036   0.320E-01    0.180E+00
RMM:  15    -0.672534676390E+03    0.34722E-01   -0.34798E-02  3247   0.202E-01    0.704E-01
RMM:  16    -0.672577915819E+03   -0.43239E-01   -0.71208E-02  3294   0.328E-01    0.194E+00
RMM:  17    -0.672546208467E+03    0.31707E-01   -0.53218E-03  2960   0.120E-01    0.820E-01
RMM:  18    -0.672547911788E+03   -0.17033E-02   -0.48688E-03  3149   0.853E-02    0.105E-01
RMM:  19    -0.672553070363E+03   -0.51586E-02   -0.16486E-03  3012   0.630E-02    0.366E-01
RMM:  20    -0.672554117799E+03   -0.10474E-02   -0.11958E-03  3213   0.484E-02    0.108E-01
RMM:  21    -0.672554755699E+03   -0.63790E-03   -0.23313E-04  3019   0.210E-02    0.149E-02
RMM:  22    -0.672555409663E+03   -0.65396E-03   -0.24588E-04  3082   0.145E-02    0.696E-02
RMM:  23    -0.672555501958E+03   -0.92295E-04   -0.52813E-05  2904   0.690E-03    0.310E-02
RMM:  24    -0.672555571222E+03   -0.69264E-04   -0.30407E-05  2897   0.545E-03    0.221E-03
RMM:  25    -0.672555596738E+03   -0.25516E-04   -0.62423E-06  2125   0.301E-03    0.176E-03
RMM:  26    -0.672555606685E+03   -0.99473E-05   -0.22243E-06  1922   0.165E-03    0.174E-03
RMM:  27    -0.672555607320E+03   -0.63480E-06   -0.32610E-07  1565   0.837E-04
   1 F= -.67255561E+03 E0= -.67235800E+03  d E =-.672556E+03
       N       E                     dE             d eps       ncg     rms          rms(c)
DAV:   1    -0.675055996270E+03   -0.25004E+01   -0.31824E+02  2986   0.303E+01    0.373E+00
RMM:   2    -0.676439661776E+03   -0.13837E+01   -0.48551E+00  2928   0.399E+00    0.963E+00
RMM:   3    -0.675220091890E+03    0.12196E+01   -0.72409E-01  3029   0.153E+00    0.238E+00
RMM:   4    -0.675112210601E+03    0.10788E+00   -0.47152E-01  3007   0.998E-01    0.145E+00
RMM:   5    -0.675092202279E+03    0.20008E-01   -0.59527E-02  3150   0.421E-01    0.225E-01
RMM:   6    -0.675093524308E+03   -0.13220E-02   -0.17984E-02  3228   0.202E-01    0.237E-01
RMM:   7    -0.675092185521E+03    0.13388E-02   -0.30736E-03  3152   0.965E-02    0.555E-02
RMM:   8    -0.675091927890E+03    0.25763E-03   -0.10260E-03  3242   0.514E-02    0.400E-02
RMM:   9    -0.675091711234E+03    0.21666E-03   -0.86054E-04  3050   0.361E-02    0.534E-02
RMM:  10    -0.675092493328E+03   -0.78209E-03   -0.67270E-04  3123   0.320E-02    0.250E-02
RMM:  11    -0.675093018861E+03   -0.52553E-03   -0.43044E-04  3048   0.247E-02    0.159E-02
RMM:  12    -0.675093254580E+03   -0.23572E-03   -0.86040E-05  2932   0.137E-02    0.122E-02
RMM:  13    -0.675093392727E+03   -0.13815E-03   -0.25045E-05  2746   0.650E-03    0.872E-03
RMM:  14    -0.675093440426E+03   -0.47699E-04   -0.41885E-05  2706   0.522E-03    0.249E-03
RMM:  15    -0.675093480658E+03   -0.40232E-04   -0.10249E-05  2178   0.290E-03    0.434E-03
RMM:  16    -0.675093497135E+03   -0.16477E-04   -0.29745E-06  1956   0.165E-03    0.580E-04
RMM:  17    -0.675093503648E+03   -0.65133E-05   -0.12123E-06  1818   0.104E-03    0.370E-04
RMM:  18    -0.675093504398E+03   -0.74979E-06   -0.22086E-07  1054   0.595E-04
   2 F= -.67509350E+03 E0= -.67490089E+03  d E =-.253790E+01
       N       E                     dE             d eps       ncg     rms          rms(c)
DAV:   1    -0.676015199698E+03   -0.92170E+00   -0.23146E+02  2958   0.269E+01    0.322E+00
RMM:   2    -0.677869723708E+03   -0.18545E+01   -0.34667E+00  2924   0.345E+00    0.108E+01
RMM:   3    -0.676085450953E+03    0.17843E+01   -0.48680E-01  3006   0.131E+00    0.162E+00
RMM:   4    -0.676044950995E+03    0.40500E-01   -0.33973E-01  3002   0.864E-01    0.130E+00
RMM:   5    -0.676029501939E+03    0.15449E-01   -0.46449E-02  3144   0.376E-01    0.347E-01
RMM:   6    -0.676030745126E+03   -0.12432E-02   -0.12200E-02  3312   0.172E-01    0.281E-01
RMM:   7    -0.676029560901E+03    0.11842E-02   -0.21597E-03  3024   0.841E-02    0.308E-02
RMM:   8    -0.676029677891E+03   -0.11699E-03   -0.60637E-04  3634   0.428E-02    0.375E-02
RMM:   9    -0.676029774224E+03   -0.96333E-04   -0.61603E-04  3013   0.300E-02    0.271E-02
RMM:  10    -0.676029857999E+03   -0.83775E-04   -0.73006E-05  2935   0.138E-02    0.277E-02
RMM:  11    -0.676030312215E+03   -0.45422E-03   -0.29873E-04  3220   0.181E-02    0.103E-02
RMM:  12    -0.676030394925E+03   -0.82709E-04   -0.38685E-05  2846   0.913E-03    0.758E-03
RMM:  13    -0.676030562383E+03   -0.16746E-03   -0.43053E-05  3004   0.723E-03    0.986E-03
RMM:  14    -0.676030615636E+03   -0.53253E-04   -0.84637E-06  2227   0.341E-03    0.796E-03
RMM:  15    -0.676030620838E+03   -0.52022E-05   -0.83142E-06  2136   0.270E-03    0.323E-03
RMM:  16    -0.676030637640E+03   -0.16802E-04   -0.39942E-06  1948   0.183E-03    0.119E-03
RMM:  17    -0.676030640126E+03   -0.24859E-05   -0.62547E-07  1624   0.941E-04    0.717E-04
RMM:  18    -0.676030641753E+03   -0.16271E-05   -0.31801E-07  1056   0.624E-04    0.274E-04
RMM:  19    -0.676030641998E+03   -0.24456E-06   -0.96857E-08   715   0.472E-04
   3 F= -.67603064E+03 E0= -.67583333E+03  d E =-.347503E+01
       N       E                     dE             d eps       ncg     rms          rms(c)
DAV:   1    -0.676094291980E+03   -0.63650E-01   -0.23192E+01  3078   0.884E+00    0.963E-01
RMM:   2    -0.676282639791E+03   -0.18835E+00   -0.25318E-01  2929   0.947E-01    0.415E+00
RMM:   3    -0.676093125097E+03    0.18951E+00   -0.45641E-02  3038   0.392E-01    0.522E-01
RMM:   4    -0.676090051411E+03    0.30737E-02   -0.48464E-02  3000   0.316E-01    0.194E-01
RMM:   5    -0.676089717347E+03    0.33406E-03   -0.41460E-03  3050   0.125E-01    0.701E-02
RMM:   6    -0.676089734776E+03   -0.17428E-04   -0.12825E-03  3227   0.557E-02    0.249E-02
RMM:   7    -0.676089783018E+03   -0.48242E-04   -0.20922E-04  3583   0.230E-02    0.190E-02
RMM:   8    -0.676089853848E+03   -0.70830E-04   -0.46635E-05  2909   0.103E-02    0.100E-02
RMM:   9    -0.676089909016E+03   -0.55169E-04   -0.13579E-05  2690   0.564E-03    0.788E-03
RMM:  10    -0.676090049819E+03   -0.14080E-03   -0.72686E-05  2957   0.714E-03    0.595E-03
RMM:  11    -0.676090071628E+03   -0.21809E-04   -0.64910E-06  2439   0.345E-03    0.331E-03
RMM:  12    -0.676090105903E+03   -0.34275E-04   -0.53659E-06  2164   0.285E-03    0.297E-03
RMM:  13    -0.676090121590E+03   -0.15687E-04   -0.22200E-06  1930   0.157E-03    0.168E-03
RMM:  14    -0.676090125742E+03   -0.41516E-05   -0.15239E-06  1856   0.120E-03    0.976E-04
RMM:  15    -0.676090126393E+03   -0.65147E-06   -0.41466E-07  1404   0.737E-04
   4 F= -.67609013E+03 E0= -.67589145E+03  d E =-.353452E+01
       N       E                     dE             d eps       ncg     rms          rms(c)
DAV:   1    -0.676090358499E+03   -0.23276E-03   -0.98381E-02  3239   0.581E-01    0.620E-02
RMM:   2    -0.676091206669E+03   -0.84817E-03   -0.10174E-03  2925   0.601E-02    0.282E-01
RMM:   3    -0.676090359268E+03    0.84740E-03   -0.20947E-04  3015   0.276E-02    0.343E-02
RMM:   4    -0.676090341902E+03    0.17366E-04   -0.22489E-04  2947   0.226E-02    0.905E-03
RMM:   5    -0.676090340439E+03    0.14633E-05   -0.21863E-05  2811   0.855E-03    0.492E-03
RMM:   6    -0.676090339880E+03    0.55865E-06   -0.45651E-06  2260   0.377E-03
   5 F= -.67609034E+03 E0= -.67589158E+03  d E =-.353473E+01
       N       E                     dE             d eps       ncg     rms          rms(c)
DAV:   1    -0.676090340027E+03    0.41128E-06   -0.44007E-05  3224   0.122E-02    0.143E-03
RMM:   2    -0.676090340472E+03   -0.44479E-06   -0.53403E-07  1593   0.149E-03
   6 F= -.67609034E+03 E0= -.67589158E+03  d E =-.353473E+01
       N       E                     dE             d eps       ncg     rms          rms(c)
DAV:   1    -0.676090340638E+03   -0.61053E-06   -0.57451E-06  2808   0.463E-03    0.195E-03
RMM:   2    -0.676090342806E+03   -0.21679E-05   -0.31581E-07  1353   0.938E-04    0.125E-02
RMM:   3    -0.676090341360E+03    0.14457E-05   -0.85856E-08  1051   0.678E-04    0.895E-04
RMM:   4    -0.676090341749E+03   -0.38871E-06   -0.42356E-08   698   0.528E-04
   7 F= -.67609034E+03 E0= -.67589158E+03  d E =-.353473E+01
       N       E                     dE             d eps       ncg     rms          rms(c)
DAV:   1    -0.676090342413E+03   -0.10531E-05   -0.69915E-07  1944   0.153E-03    0.402E-04
RMM:   2    -0.676090342753E+03   -0.33929E-06   -0.12894E-08   464   0.376E-04
   8 F= -.67609034E+03 E0= -.67589158E+03  d E =-.353474E+01
       N       E                     dE             d eps       ncg     rms          rms(c)
DAV:   1    -0.676090342719E+03   -0.30546E-06   -0.75746E-07  1872   0.170E-03    0.419E-04
RMM:   2    -0.676090343033E+03   -0.31420E-06   -0.84421E-09   427   0.375E-04
   9 F= -.67609034E+03 E0= -.67589158E+03  d E =-.353474E+01
       N       E                     dE             d eps       ncg     rms          rms(c)
DAV:   1    -0.676090372433E+03   -0.29714E-04   -0.25247E-02  3008   0.307E-01    0.230E-02
RMM:   2    -0.676090392532E+03   -0.20099E-04   -0.34556E-04  2890   0.342E-02    0.171E-02
RMM:   3    -0.676090405538E+03   -0.13007E-04   -0.87915E-05  2945   0.141E-02    0.368E-02
RMM:   4    -0.676090391859E+03    0.13680E-04   -0.33232E-05  2748   0.936E-03    0.561E-03
RMM:   5    -0.676090390753E+03    0.11056E-05   -0.51012E-06  2266   0.407E-03    0.251E-03
RMM:   6    -0.676090391028E+03   -0.27529E-06   -0.20254E-06  1823   0.218E-03
  10 F= -.67609039E+03 E0= -.67589164E+03  d E =-.479956E-04
