 vasp.6.3.2 27Jun22 (build Mar 15 2023 15:45:48) complex                        
  
 executed on             LinuxIFC date 2024.07.17  02:13:35
 running on    4 total cores
 distrk:  each k-point on    1 cores,    4 groups
 distr:  one band on NCORE=   1 cores,    1 groups


--------------------------------------------------------------------------------------------------------


 INCAR:
   SYSTEM = ni3al
   PREC = Accurate
   EDIFF = 1E-6
   EDIFFG = -1E-2
   ISTART = 0
   ICHARG = 2
   LREAL = Auto
   NSW = 300
   ISIF = 2
   IBRION = 2
   ISMEAR = 0
   SIGMA = 0.1
   ENCUT = 530
   ALGO = Fast
   LMAXMIX = 4
   AMIN = 0.01
   NELM = 150
   LCHARG = .FALSE.
   LWAVE = .FALSE.
   KPAR = 8

 POTCAR:   PAW_PBE C 08Apr2002                    
 POTCAR:   PAW_PBE Si 05Jan2001                   
 POTCAR:   PAW_PBE C 08Apr2002                    
   VRHFIN =C: s2p2                                                                                  
   LEXCH  = PE                                                                                      
   EATOM  =   147.1560 eV,   10.8157 Ry                                                             
                                                                                                    
   TITEL  = PAW_PBE C 08Apr2002                                                                     
   LULTRA =        F    use ultrasoft PP ?                                                          
   IUNSCR =        0    unscreen: 0-lin 1-nonlin 2-no                                               
   RPACOR =     .000    partial core radius                                                         
   POMASS =   12.011; ZVAL   =    4.000    mass and valenz                                          
   RCORE  =    1.500    outmost cutoff radius                                                       
   RWIGS  =    1.630; RWIGS  =     .863    wigner-seitz radius (au A)                               
   ENMAX  =  400.000; ENMIN  =  300.000 eV                                                          
   ICORE  =        2    local potential                                                             
   LCOR   =        T    correct aug charges                                                         
   LPAW   =        T    paw PP                                                                      
   EAUG   =  644.873                                                                                
   DEXC   =     .000                                                                                
   RMAX   =    2.266    core radius for proj-oper                                                   
   RAUG   =    1.300    factor for augmentation sphere                                              
   RDEP   =    1.501    radius for radial grids                                                     
   RDEPT  =    1.300    core radius for aug-charge                                                  
   QCUT   =   -5.516; QGAM   =   11.032    optimization parameters                                  
                                                                                                    
   Description                                                                                      
     l     E      TYP  RCUT    TYP  RCUT                                                            
     0   .000     23  1.200                                                                         
     0   .000     23  1.200                                                                         
     1   .000     23  1.500                                                                         
     1  2.500     23  1.500                                                                         
     2   .000      7  1.500                                                                         
  local pseudopotential read in
  atomic valenz-charges read in
  non local Contribution for L=           0  read in
    real space projection operators read in
  non local Contribution for L=           0  read in
    real space projection operators read in
  non local Contribution for L=           1  read in
    real space projection operators read in
  non local Contribution for L=           1  read in
    real space projection operators read in
    PAW grid and wavefunctions read in
 
   number of l-projection  operators is LMAX  =           4
   number of lm-projection operators is LMMAX =           8
 
 POTCAR:   PAW_PBE Si 05Jan2001                   
   VRHFIN =Si: s2p2                                                                                 
   LEXCH  = PE                                                                                      
   EATOM  =   103.0669 eV,    7.5752 Ry                                                             
                                                                                                    
   TITEL  = PAW_PBE Si 05Jan2001                                                                    
   LULTRA =        F    use ultrasoft PP ?                                                          
   IUNSCR =        1    unscreen: 0-lin 1-nonlin 2-no                                               
   RPACOR =    1.500    partial core radius                                                         
   POMASS =   28.085; ZVAL   =    4.000    mass and valenz                                          
   RCORE  =    1.900    outmost cutoff radius                                                       
   RWIGS  =    2.480; RWIGS  =    1.312    wigner-seitz radius (au A)                               
   ENMAX  =  245.345; ENMIN  =  184.009 eV                                                          
   ICORE  =        2    local potential                                                             
   LCOR   =        T    correct aug charges                                                         
   LPAW   =        T    paw PP                                                                      
   EAUG   =  322.069                                                                                
   DEXC   =    -.007                                                                                
   RMAX   =    2.944    core radius for proj-oper                                                   
   RAUG   =    1.300    factor for augmentation sphere                                              
   RDEP   =    1.993    radius for radial grids                                                     
   QCUT   =   -4.246; QGAM   =    8.493    optimization parameters                                  
                                                                                                    
   Description                                                                                      
     l     E      TYP  RCUT    TYP  RCUT                                                            
     0   .000     23  1.900                                                                         
     0   .000     23  1.900                                                                         
     1   .000     23  1.900                                                                         
     1   .000     23  1.900                                                                         
     2   .000      7  1.900                                                                         
  local pseudopotential read in
  partial core-charges read in
  atomic valenz-charges read in
  non local Contribution for L=           0  read in
    real space projection operators read in
  non local Contribution for L=           0  read in
    real space projection operators read in
  non local Contribution for L=           1  read in
    real space projection operators read in
  non local Contribution for L=           1  read in
    real space projection operators read in
    PAW grid and wavefunctions read in
 
   number of l-projection  operators is LMAX  =           4
   number of lm-projection operators is LMMAX =           8
 
 Optimization of the real space projectors (new method)

 maximal supplied QI-value         = 25.13
 optimisation between [QCUT,QGAM] = [ 11.56, 23.37] = [ 37.43,152.99] Ry 
 Optimized for a Real-space Cutoff    1.07 Angstroem

   l    n(q)    QCUT    max X(q) W(low)/X(q) W(high)/X(q)  e(spline) 
   0      7    11.561     5.582    0.43E-04    0.82E-04    0.19E-07
   0      7    11.561    69.432    0.18E-03    0.47E-03    0.23E-06
   1      7    11.561     2.780    0.18E-04    0.55E-04    0.48E-07
   1      7    11.561     4.549    0.18E-03    0.21E-03    0.13E-06
 Optimization of the real space projectors (new method)

 maximal supplied QI-value         = 19.84
 optimisation between [QCUT,QGAM] = [ 11.71, 23.41] = [ 38.38,153.51] Ry 
 Optimized for a Real-space Cutoff    1.20 Angstroem

   l    n(q)    QCUT    max X(q) W(low)/X(q) W(high)/X(q)  e(spline) 
   0      8    11.707     8.708    0.17E-04    0.67E-05    0.45E-08
   0      8    11.707   106.241    0.59E-04    0.18E-03    0.53E-07
   1      8    11.707     5.901    0.60E-05    0.19E-04    0.21E-07
   1      8    11.707    73.241    0.22E-03    0.21E-04    0.75E-07
 PAW_PBE C 08Apr2002                    :
 energy of atom  1       EATOM= -147.1560
 kinetic energy error for atom=    0.0069 (will be added to EATOM!!)
 PAW_PBE Si 05Jan2001                   :
 energy of atom  2       EATOM= -103.0669
 kinetic energy error for atom=    0.0005 (will be added to EATOM!!)
 
 
 POSCAR: POSCAR
  positions in direct lattice
  No initial velocities read in
 exchange correlation table for  LEXCH =        8
   RHO(1)=    0.500       N(1)  =     2000
   RHO(2)=  100.500       N(2)  =     4000

 VTST: version 4.2, (08/11/21)

 CHAIN: initializing optimizer
 
 OPT: Using VASP Conjugate-Gradient optimizer
 CHAIN: Read ICHAIN            0
 
 POSCAR: POSCAR
  positions in direct lattice
  No initial velocities read in
 


--------------------------------------------------------------------------------------------------------


 ion  position               nearest neighbor table
   1  0.000  0.000  0.312-  56 1.89  72 1.89  79 1.89  51 1.90
   2  0.167  0.250  0.312-  63 1.89  55 1.89  56 1.89  52 1.90
   3  0.000  0.333  0.451-  52 1.90  68 1.90  75 1.90
   4  0.167  0.083  0.451-  59 1.90  51 1.90  52 1.90
   5  0.000  0.167  0.035-  49 1.90  50 1.90  66 1.90  53 1.90
   6  0.167  0.417  0.035-  50 1.90  81 1.90  73 1.90  54 1.90
   7  0.000  0.333  0.174-  54 1.89  70 1.89  53 1.89  55 1.90
   8  0.167  0.083  0.174-  61 1.89  53 1.89  78 1.89  56 1.90
   9  0.333  0.000  0.312-  56 1.89  64 1.89  87 1.89  59 1.90
  10  0.500  0.250  0.312-  71 1.89  64 1.89  63 1.89  60 1.90
  11  0.333  0.333  0.451-  83 1.90  52 1.90  60 1.90
  12  0.500  0.083  0.451-  59 1.90  67 1.90  60 1.90
  13  0.333  0.167  0.035-  57 1.90  50 1.90  58 1.90  61 1.90
  14  0.500  0.417  0.035-  58 1.90  81 1.90  89 1.90  62 1.90
  15  0.333  0.333  0.174-  54 1.89  62 1.89  61 1.89  63 1.90
  16  0.500  0.083  0.174-  61 1.89  69 1.89  86 1.89  64 1.90
  17  0.667  0.000  0.312-  72 1.89  64 1.89  95 1.89  67 1.90
  18  0.833  0.250  0.312-  71 1.89  55 1.89  72 1.89  68 1.90
  19  0.667  0.333  0.451-  68 1.90  60 1.90  91 1.90
  20  0.833  0.083  0.451-  67 1.90  51 1.90  68 1.90
  21  0.667  0.167  0.035-  65 1.90  66 1.90  58 1.90  69 1.90
  22  0.833  0.417  0.035-  66 1.90  89 1.90  73 1.90  70 1.90
  23  0.667  0.333  0.174-  70 1.89  62 1.89  69 1.89  71 1.90
  24  0.833  0.083  0.174-  69 1.89  53 1.89  94 1.89  72 1.90
  25  0.000  0.500  0.312-  80 1.89  96 1.89  55 1.89  75 1.90
  26  0.167  0.750  0.312-  87 1.89  79 1.89  80 1.89  76 1.90
  27  0.000  0.833  0.451-  76 1.90  92 1.90  51 1.90
  28  0.167  0.583  0.451-  83 1.90  75 1.90  76 1.90
  29  0.000  0.667  0.035-  73 1.90  74 1.90  90 1.90  77 1.90
  30  0.167  0.917  0.035-  74 1.90  57 1.90  49 1.90  78 1.90
  31  0.000  0.833  0.174-  78 1.89  94 1.89  77 1.89  79 1.90
  32  0.167  0.583  0.174-  85 1.89  77 1.89  54 1.89  80 1.90
  33  0.333  0.500  0.312-  63 1.89  80 1.89  88 1.89  83 1.90
  34  0.500  0.750  0.312-  87 1.89  95 1.89  88 1.89  84 1.90
  35  0.333  0.833  0.451-  76 1.90  84 1.90  59 1.90
  36  0.500  0.583  0.451-  83 1.90  91 1.90  84 1.90
  37  0.333  0.667  0.035-  81 1.90  74 1.90  82 1.90  85 1.90
  38  0.500  0.917  0.035-  82 1.90  65 1.90  57 1.90  86 1.90
  39  0.333  0.833  0.174-  78 1.89  86 1.89  85 1.89  87 1.90
  40  0.500  0.583  0.174-  85 1.89  93 1.89  62 1.89  88 1.90
  41  0.667  0.500  0.312-  96 1.89  88 1.89  71 1.89  91 1.90
  42  0.833  0.750  0.312-  95 1.89  79 1.89  96 1.89  92 1.90
  43  0.667  0.833  0.451-  92 1.90  84 1.90  67 1.90
  44  0.833  0.583  0.451-  91 1.90  75 1.90  92 1.90
  45  0.667  0.667  0.035-  89 1.90  90 1.90  82 1.90  93 1.90
  46  0.833  0.917  0.035-  90 1.90  65 1.90  49 1.90  94 1.90
  47  0.667  0.833  0.174-  94 1.89  86 1.89  93 1.89  95 1.90
  48  0.833  0.583  0.174-  93 1.89  77 1.89  70 1.89  96 1.90
  49  0.000  0.000  0.000-   5 1.90  30 1.90  46 1.90  57 3.09  65 3.09  50 3.09  66 3.09  74 3.09
                            90 3.09  53 3.10  78 3.10  94 3.10
  50  0.167  0.250  0.000-   6 1.90  13 1.90   5 1.90  57 3.09  81 3.09  58 3.09  73 3.09  49 3.09
                            66 3.09  54 3.10  61 3.10  53 3.10
  51  0.000  0.000  0.417-   4 1.90  20 1.90  27 1.90   1 1.90  59 3.09  67 3.09  52 3.09  68 3.09
                            76 3.09  92 3.09  56 3.10  72 3.10  79 3.10
  52  0.167  0.250  0.417-  11 1.90   3 1.90   4 1.90   2 1.90  59 3.09  83 3.09  60 3.09  75 3.09
                            51 3.09  68 3.09  63 3.10  55 3.10  56 3.10
  53  0.000  0.167  0.139-   8 1.89  24 1.89   7 1.89   5 1.90  61 3.09  69 3.09  54 3.09  70 3.09
                            78 3.09  94 3.09  56 3.10  72 3.10  55 3.10  49 3.10  66 3.10  50 3.10
  54  0.167  0.417  0.139-  15 1.89   7 1.89  32 1.89   6 1.90  61 3.09  85 3.09  62 3.09  77 3.09
                            53 3.09  70 3.09  63 3.10  55 3.10  80 3.10  50 3.10  81 3.10  73 3.10
  55  0.000  0.333  0.278-   2 1.89  18 1.89  25 1.89   7 1.90  71 3.09  63 3.09  56 3.09  72 3.09
                            80 3.09  96 3.09  54 3.10  70 3.10  53 3.10  68 3.10  52 3.10  75 3.10
  56  0.167  0.083  0.278-   9 1.89   1 1.89   2 1.89   8 1.90  87 3.09  64 3.09  79 3.09  55 3.09
                            63 3.09  72 3.09  61 3.10  53 3.10  78 3.10  59 3.10  51 3.10  52 3.10
  57  0.333  0.000  0.000-  13 1.90  30 1.90  38 1.90  50 3.09  74 3.09  49 3.09  58 3.09  82 3.09
                            65 3.09  61 3.10  78 3.10  86 3.10
  58  0.500  0.250  0.000-  14 1.90  13 1.90  21 1.90  50 3.09  66 3.09  65 3.09  57 3.09  81 3.09
                            89 3.09  62 3.10  61 3.10  69 3.10
  59  0.333  0.000  0.417-   4 1.90  12 1.90  35 1.90   9 1.90  52 3.09  76 3.09  51 3.09  60 3.09
                            84 3.09  67 3.09  56 3.10  64 3.10  87 3.10
  60  0.500  0.250  0.417-  19 1.90  12 1.90  11 1.90  10 1.90  52 3.09  68 3.09  67 3.09  59 3.09
                            83 3.09  91 3.09  71 3.10  64 3.10  63 3.10
  61  0.333  0.167  0.139-   8 1.89  16 1.89  15 1.89  13 1.90  54 3.09  78 3.09  53 3.09  62 3.09
                            86 3.09  69 3.09  56 3.10  64 3.10  63 3.10  57 3.10  50 3.10  58 3.10
  62  0.500  0.417  0.139-  15 1.89  23 1.89  40 1.89  14 1.90  54 3.09  70 3.09  69 3.09  61 3.09
                            85 3.09  93 3.09  63 3.10  71 3.10  88 3.10  58 3.10  89 3.10  81 3.10
  63  0.333  0.333  0.278-  33 1.89   2 1.89  10 1.89  15 1.90  80 3.09  88 3.09  55 3.09  56 3.09
                            71 3.09  64 3.09  54 3.10  62 3.10  61 3.10  83 3.10  52 3.10  60 3.10
  64  0.500  0.083  0.278-   9 1.89  17 1.89  10 1.89  16 1.90  56 3.09  72 3.09  71 3.09  87 3.09
                            95 3.09  63 3.09  61 3.10  69 3.10  86 3.10  59 3.10  67 3.10  60 3.10
  65  0.667  0.000  0.000-  21 1.90  46 1.90  38 1.90  66 3.09  90 3.09  49 3.09  82 3.09  58 3.09
                            57 3.09  69 3.10  94 3.10  86 3.10
  66  0.833  0.250  0.000-  22 1.90  21 1.90   5 1.90  65 3.09  89 3.09  58 3.09  73 3.09  49 3.09
                            50 3.09  70 3.10  69 3.10  53 3.10
  67  0.667  0.000  0.417-  20 1.90  12 1.90  43 1.90  17 1.90  68 3.09  92 3.09  51 3.09  84 3.09
                            60 3.09  59 3.09  72 3.10  64 3.10  95 3.10
  68  0.833  0.250  0.417-  19 1.90   3 1.90  20 1.90  18 1.90  67 3.09  91 3.09  60 3.09  75 3.09
                            51 3.09  52 3.09  71 3.10  55 3.10  72 3.10
  69  0.667  0.167  0.139-  24 1.89  16 1.89  23 1.89  21 1.90  70 3.09  94 3.09  53 3.09  86 3.09
                            62 3.09  61 3.09  72 3.10  64 3.10  71 3.10  65 3.10  66 3.10  58 3.10
  70  0.833  0.417  0.139-  23 1.89   7 1.89  48 1.89  22 1.90  69 3.09  93 3.09  62 3.09  77 3.09
                            53 3.09  54 3.09  71 3.10  55 3.10  96 3.10  66 3.10  89 3.10  73 3.10
  71  0.667  0.333  0.278-  18 1.89  10 1.89  41 1.89  23 1.90  72 3.09  96 3.09  55 3.09  88 3.09
                            64 3.09  63 3.09  70 3.10  62 3.10  69 3.10  68 3.10  60 3.10  91 3.10
  72  0.833  0.083  0.278-  17 1.89   1 1.89  18 1.89  24 1.90  71 3.09  95 3.09  64 3.09  79 3.09
                            55 3.09  56 3.09  69 3.10  53 3.10  94 3.10  67 3.10  51 3.10  68 3.10
  73  0.000  0.500  0.000-  29 1.90  22 1.90   6 1.90  81 3.09  89 3.09  74 3.09  50 3.09  66 3.09
                            90 3.09  77 3.10  70 3.10  54 3.10
  74  0.167  0.750  0.000-  30 1.90  37 1.90  29 1.90  57 3.09  81 3.09  82 3.09  49 3.09  73 3.09
                            90 3.09  78 3.10  85 3.10  77 3.10
  75  0.000  0.500  0.417-  28 1.90  44 1.90   3 1.90  25 1.90  83 3.09  91 3.09  76 3.09  52 3.09
                            68 3.09  92 3.09  80 3.10  96 3.10  55 3.10
  76  0.167  0.750  0.417-  35 1.90  27 1.90  28 1.90  26 1.90  59 3.09  83 3.09  84 3.09  51 3.09
                            75 3.09  92 3.09  87 3.10  79 3.10  80 3.10
  77  0.000  0.667  0.139-  32 1.89  48 1.89  31 1.89  29 1.90  85 3.09  93 3.09  78 3.09  54 3.09
                            70 3.09  94 3.09  80 3.10  96 3.10  79 3.10  73 3.10  90 3.10  74 3.10
  78  0.167  0.917  0.139-  39 1.89  31 1.89   8 1.89  30 1.90  61 3.09  85 3.09  86 3.09  53 3.09
                            77 3.09  94 3.09  87 3.10  79 3.10  56 3.10  74 3.10  57 3.10  49 3.10
  79  0.000  0.833  0.278-  26 1.89  42 1.89   1 1.89  31 1.90  87 3.09  95 3.09  80 3.09  56 3.09
                            72 3.09  96 3.09  78 3.10  94 3.10  77 3.10  92 3.10  76 3.10  51 3.10
  80  0.167  0.583  0.278-  33 1.89  25 1.89  26 1.89  32 1.90  63 3.09  87 3.09  88 3.09  55 3.09
                            79 3.09  96 3.09  85 3.10  77 3.10  54 3.10  83 3.10  75 3.10  76 3.10
  81  0.333  0.500  0.000-  37 1.90   6 1.90  14 1.90  50 3.09  74 3.09  73 3.09  58 3.09  82 3.09
                            89 3.09  85 3.10  54 3.10  62 3.10
  82  0.500  0.750  0.000-  38 1.90  37 1.90  45 1.90  74 3.09  90 3.09  57 3.09  81 3.09  89 3.09
                            65 3.09  86 3.10  85 3.10  93 3.10
  83  0.333  0.500  0.417-  11 1.90  28 1.90  36 1.90  33 1.90  52 3.09  76 3.09  75 3.09  60 3.09
                            84 3.09  91 3.09  63 3.10  80 3.10  88 3.10
  84  0.500  0.750  0.417-  35 1.90  43 1.90  36 1.90  34 1.90  76 3.09  92 3.09  59 3.09  83 3.09
                            91 3.09  67 3.09  87 3.10  95 3.10  88 3.10
  85  0.333  0.667  0.139-  32 1.89  40 1.89  39 1.89  37 1.90  54 3.09  78 3.09  77 3.09  62 3.09
                            86 3.09  93 3.09  80 3.10  88 3.10  87 3.10  81 3.10  74 3.10  82 3.10
  86  0.500  0.917  0.139-  39 1.89  47 1.89  16 1.89  38 1.90  78 3.09  94 3.09  61 3.09  85 3.09
                            93 3.09  69 3.09  87 3.10  95 3.10  64 3.10  82 3.10  57 3.10  65 3.10
  87  0.333  0.833  0.278-  26 1.89  34 1.89   9 1.89  39 1.90  56 3.09  80 3.09  79 3.09  64 3.09
                            88 3.09  95 3.09  78 3.10  86 3.10  85 3.10  76 3.10  84 3.10  59 3.10
  88  0.500  0.583  0.278-  33 1.89  41 1.89  34 1.89  40 1.90  63 3.09  80 3.09  96 3.09  87 3.09
                            95 3.09  71 3.09  85 3.10  93 3.10  62 3.10  91 3.10  83 3.10  84 3.10
  89  0.667  0.500  0.000-  45 1.90  22 1.90  14 1.90  66 3.09  90 3.09  73 3.09  82 3.09  58 3.09
                            81 3.09  93 3.10  70 3.10  62 3.10
  90  0.833  0.750  0.000-  46 1.90  45 1.90  29 1.90  65 3.09  89 3.09  82 3.09  49 3.09  73 3.09
                            74 3.09  94 3.10  93 3.10  77 3.10
  91  0.667  0.500  0.417-  44 1.90  36 1.90  19 1.90  41 1.90  68 3.09  92 3.09  75 3.09  84 3.09
                            60 3.09  83 3.09  96 3.10  88 3.10  71 3.10
  92  0.833  0.750  0.417-  43 1.90  27 1.90  44 1.90  42 1.90  67 3.09  91 3.09  84 3.09  51 3.09
                            75 3.09  76 3.09  95 3.10  79 3.10  96 3.10
  93  0.667  0.667  0.139-  48 1.89  40 1.89  47 1.89  45 1.90  70 3.09  94 3.09  77 3.09  86 3.09
                            62 3.09  85 3.09  96 3.10  88 3.10  95 3.10  89 3.10  90 3.10  82 3.10
  94  0.833  0.917  0.139-  47 1.89  31 1.89  24 1.89  46 1.90  69 3.09  93 3.09  86 3.09  53 3.09
                            77 3.09  78 3.09  95 3.10  79 3.10  72 3.10  90 3.10  65 3.10  49 3.10
  95  0.667  0.833  0.278-  42 1.89  34 1.89  17 1.89  47 1.90  72 3.09  96 3.09  79 3.09  88 3.09
                            64 3.09  87 3.09  94 3.10  86 3.10  93 3.10  92 3.10  84 3.10  67 3.10
  96  0.833  0.583  0.278-  41 1.89  25 1.89  42 1.89  48 1.90  71 3.09  95 3.09  88 3.09  55 3.09
                            79 3.09  80 3.09  93 3.10  77 3.10  70 3.10  91 3.10  75 3.10  92 3.10
 
  LATTYP: Found a simple orthorhombic cell.
 ALAT       =     9.2842620000
 B/A-ratio  =     1.1547005029
 C/A-ratio  =     1.9632406970
  
  Lattice vectors:
  
 A1 = (   9.2842620000,   0.0000000000,   0.0000000000)
 A2 = (   0.0000000000,  10.7205420000,   0.0000000000)
 A3 = (   0.0000000000,   0.0000000000,  18.2272410000)


Analysis of symmetry for initial positions (statically):
=====================================================================
 Subroutine PRICEL returns following result:
 
  LATTYP: Found a hexagonal cell.
 ALAT       =     3.0947601895
 C/A-ratio  =     5.8897103116
  
  Lattice vectors:
  
 A1 = (  -3.0947601895,   0.0000000000,   0.0000000000)
 A2 = (   1.5473800948,  -2.6801355000,   0.0000000000)
 A3 = (   0.0000000000,   0.0000000000,  18.2272410000)
 
  12 primitive cells build up your supercell.
 

 Routine SETGRP: Setting up the symmetry group for a 
 simple orthorhombic supercell.


 Subroutine GETGRP returns: Found  2 space group operations
 (whereof  2 operations were pure point group operations)
 out of a pool of  8 trial point group operations.


The static configuration has the point symmetry C_1h.


Analysis of symmetry for dynamics (positions and initial velocities):
=====================================================================
 Subroutine PRICEL returns following result:
 
  LATTYP: Found a hexagonal cell.
 ALAT       =     3.0947601895
 C/A-ratio  =     5.8897103116
  
  Lattice vectors:
  
 A1 = (  -3.0947601895,   0.0000000000,   0.0000000000)
 A2 = (   1.5473800948,  -2.6801355000,   0.0000000000)
 A3 = (   0.0000000000,   0.0000000000,  18.2272410000)
 
  12 primitive cells build up your supercell.
 

 Routine SETGRP: Setting up the symmetry group for a 
 simple orthorhombic supercell.


 Subroutine GETGRP returns: Found  2 space group operations
 (whereof  2 operations were pure point group operations)
 out of a pool of  8 trial point group operations.


The dynamic configuration has the point symmetry C_1h.


Analysis of constrained symmetry for selective dynamics:
=====================================================================
 Subroutine PRICEL returns following result:
 
  LATTYP: Found a hexagonal cell.
 ALAT       =     3.0947601895
 C/A-ratio  =     5.8897103116
  
  Lattice vectors:
  
 A1 = (  -3.0947601895,   0.0000000000,   0.0000000000)
 A2 = (   1.5473800948,  -2.6801355000,   0.0000000000)
 A3 = (   0.0000000000,   0.0000000000,  18.2272410000)
 
  12 primitive cells build up your supercell.
 

 Routine SETGRP: Setting up the symmetry group for a 
 simple orthorhombic supercell.


 Subroutine GETGRP returns: Found  2 space group operations
 (whereof  2 operations were pure point group operations)
 out of a pool of  8 trial point group operations.


The constrained configuration has the point symmetry C_1h.


 Subroutine INISYM returns: Found  2 space group operations
 (whereof  2 operations are pure point group operations),
 and found    12 'primitive' translations


----------------------------------------------------------------------------------------

                                     Primitive cell                                     

  volume of cell :     151.1836

  direct lattice vectors                    reciprocal lattice vectors
    -3.094760190  0.000000000  0.000000000    -0.323126814 -0.186557732  0.000000000
     1.547380095 -2.680135500  0.000000000     0.000000000 -0.373115464  0.000000000
     0.000000000  0.000000000 18.227241000     0.000000000  0.000000000  0.054862938

  length of vectors
     3.094760190  3.094755476 18.227241000     0.373114895  0.373115464  0.054862938

  position of ions in fractional coordinates (direct lattice)
     0.000000000  0.000000000  0.312130000
     0.333334000  0.666668000  0.451371000
     0.666668000  0.333336000  0.034822000
     0.333334000  0.666668000  0.173518000
     0.000000000  0.000000000  0.000000000
     0.000000000  0.000000000  0.416549000
     0.666668000  0.333336000  0.138949000
     0.333334000  0.666668000  0.277649000

  ion indices of the primitive-cell ions
   primitive index   ion index
                 1           1
                 2          27
                 3           5
                 4          31
                 5          49
                 6          51
                 7          53
                 8          79

----------------------------------------------------------------------------------------

 
 
 KPOINTS: K-Spacing Value to Generate K-Mesh: 0.03

Automatic generation of k-mesh.
 Grid dimensions read from file:
 generate k-points for:    4    3    1

 Generating k-lattice:

  Cartesian coordinates                     Fractional coordinates (reciprocal lattice)
     0.026927288  0.000000000  0.000000000     0.250000000  0.000000000  0.000000000
     0.000000000  0.031092955  0.000000000     0.000000000  0.333333333  0.000000000
     0.000000000  0.000000000  0.054862938     0.000000000  0.000000000  1.000000000

  Length of vectors
     0.026927288  0.031092955  0.054862938

  Shift w.r.t. Gamma in fractional coordinates (k-lattice)
     0.000000000  0.000000000  0.000000000

 
 Subroutine IBZKPT returns following result:
 ===========================================
 
 Found      6 irreducible k-points:
 
 Following reciprocal coordinates:
            Coordinates               Weight
  0.000000  0.000000  0.000000      1.000000
  0.250000  0.000000  0.000000      2.000000
  0.500000  0.000000  0.000000      1.000000
  0.000000  0.333333  0.000000      2.000000
  0.250000  0.333333  0.000000      4.000000
  0.500000  0.333333  0.000000      2.000000
 
 Following cartesian coordinates:
            Coordinates               Weight
  0.000000  0.000000  0.000000      1.000000
  0.026927  0.000000  0.000000      2.000000
  0.053855  0.000000  0.000000      1.000000
  0.000000  0.031093  0.000000      2.000000
  0.026927  0.031093  0.000000      4.000000
  0.053855  0.031093  0.000000      2.000000
 


--------------------------------------------------------------------------------------------------------




 Dimension of arrays:
   k-points           NKPTS =      6   k-points in BZ     NKDIM =      6   number of bands    NBANDS=    241
   number of dos      NEDOS =    301   number of ions     NIONS =     96
   non local maximal  LDIM  =      4   non local SUM 2l+1 LMDIM =      8
   total plane-waves  NPLWV = 784000
   max r-space proj   IRMAX =   3172   max aug-charges    IRDMAX=  14647
   dimension x,y,z NGX =    70 NGY =   80 NGZ =  140
   dimension x,y,z NGXF=   140 NGYF=  160 NGZF=  280
   support grid    NGXF=   140 NGYF=  160 NGZF=  280
   ions per type =              48  48
   NGX,Y,Z   is equivalent  to a cutoff of  12.53, 12.41, 12.77 a.u.
   NGXF,Y,Z  is equivalent  to a cutoff of  25.07, 24.81, 25.54 a.u.

 SYSTEM =  ni3al                                   
 POSCAR =  POSCAR                                  

 Startparameter for this run:
   NWRITE =      2    write-flag & timer
   PREC   = accura    normal or accurate (medium, high low for compatibility)
   ISTART =      0    job   : 0-new  1-cont  2-samecut
   ICHARG =      2    charge: 1-file 2-atom 10-const
   ISPIN  =      1    spin polarized calculation?
   LNONCOLLINEAR =      F non collinear calculations
   LSORBIT =      F    spin-orbit coupling
   INIWAV =      1    electr: 0-lowe 1-rand  2-diag
   LASPH  =      F    aspherical Exc in radial PAW
 Electronic Relaxation 1
   ENCUT  =  530.0 eV  38.95 Ry    6.24 a.u.  17.43 20.12 34.21*2*pi/ulx,y,z
   ENINI  =  530.0     initial cutoff
   ENAUG  =  644.9 eV  augmentation charge cutoff
   NELM   =    150;   NELMIN=  2; NELMDL= -5     # of ELM steps 
   EDIFF  = 0.1E-05   stopping-criterion for ELM
   LREAL  =      T    real-space projection
   NLSPLINE    = F    spline interpolate recip. space projectors
   LCOMPAT=      F    compatible to vasp.4.4
   GGA_COMPAT  = T    GGA compatible to vasp.4.4-vasp.4.6
   LMAXPAW     = -100 max onsite density
   LMAXMIX     =    4 max onsite mixed and CHGCAR
   VOSKOWN=      0    Vosko Wilk Nusair interpolation
   ROPT   =   -0.00025  -0.00025
 Ionic relaxation
   EDIFFG = -.1E-01   stopping-criterion for IOM
   NSW    =    300    number of steps for IOM
   NBLOCK =      1;   KBLOCK =    300    inner block; outer block 
   IBRION =      2    ionic relax: 0-MD 1-quasi-New 2-CG
   NFREE  =      1    steps in history (QN), initial steepest desc. (CG)
   ISIF   =      2    stress and relaxation
   IWAVPR =     11    prediction:  0-non 1-charg 2-wave 3-comb
   ISYM   =      2    0-nonsym 1-usesym 2-fastsym
   LCORR  =      T    Harris-Foulkes like correction to forces

   POTIM  = 0.5000    time-step for ionic-motion
   TEIN   =    0.0    initial temperature
   TEBEG  =    0.0;   TEEND  =   0.0 temperature during run
   SMASS  =  -3.00    Nose mass-parameter (am)
   estimated Nose-frequenzy (Omega)   =  0.10E-29 period in steps = 0.13E+47 mass=  -0.197E-26a.u.
   SCALEE = 1.0000    scale energy and forces
   NPACO  =    256;   APACO  = 10.0  distance and # of slots for P.C.
   PSTRESS=    0.0 pullay stress

  Mass of Ions in am
   POMASS =  12.01 28.09
  Ionic Valenz
   ZVAL   =   4.00  4.00
  Atomic Wigner-Seitz radii
   RWIGS  =  -1.00 -1.00
  virtual crystal weights 
   VCA    =   1.00  1.00
   NELECT =     384.0000    total number of electrons
   NUPDOWN=      -1.0000    fix difference up-down

 DOS related values:
   EMIN   =  10.00;   EMAX   =-10.00  energy-range for DOS
   EFERMI =   0.00
   ISMEAR =     0;   SIGMA  =   0.10  broadening in eV -4-tet -1-fermi 0-gaus

 Electronic relaxation 2 (details)
   IALGO  =     68    algorithm
   LDIAG  =      T    sub-space diagonalisation (order eigenvalues)
   LSUBROT=      F    optimize rotation matrix (better conditioning)
   TURBO    =      0    0=normal 1=particle mesh
   IRESTART =      0    0=no restart 2=restart with 2 vectors
   NREBOOT  =      0    no. of reboots
   NMIN     =      0    reboot dimension
   EREF     =   0.00    reference energy to select bands
   IMIX   =      4    mixing-type and parameters
     AMIX     =   0.40;   BMIX     =  1.00
     AMIX_MAG =   1.60;   BMIX_MAG =  1.00
     AMIN     =   0.01
     WC   =   100.;   INIMIX=   1;  MIXPRE=   1;  MAXMIX= -45

 Intra band minimization:
   WEIMIN = 0.0010     energy-eigenvalue tresh-hold
   EBREAK =  0.10E-08  absolut break condition
   DEPER  =   0.30     relativ break condition  

   TIME   =   0.40     timestep for ELM

  volume/ion in A,a.u.               =      18.90       127.53
  Fermi-wavevector in a.u.,A,eV,Ry     =   0.975641  1.843695 12.951061  0.951876
  Thomas-Fermi vector in A             =   2.106197
 
 Write flags
   LWAVE        =      F    write WAVECAR
   LDOWNSAMPLE  =      F    k-point downsampling of WAVECAR
   LCHARG       =      F    write CHGCAR
   LVTOT        =      F    write LOCPOT, total local potential
   LVHAR        =      F    write LOCPOT, Hartree potential only
   LELF         =      F    write electronic localiz. function (ELF)
   LORBIT       =      0    0 simple, 1 ext, 2 COOP (PROOUT), +10 PAW based schemes


 Dipole corrections
   LMONO  =      F    monopole corrections only (constant potential shift)
   LDIPOL =      F    correct potential (dipole corrections)
   IDIPOL =      0    1-x, 2-y, 3-z, 4-all directions 
   EPSILON=  1.0000000 bulk dielectric constant

 Exchange correlation treatment:
   GGA     =    --    GGA type
   LEXCH   =     8    internal setting for exchange type
   LIBXC   =     F    Libxc                    
   VOSKOWN =     0    Vosko Wilk Nusair interpolation
   LHFCALC =     F    Hartree Fock is set to
   LHFONE  =     F    Hartree Fock one center treatment
   AEXX    =    0.0000 exact exchange contribution

 Linear response parameters
   LEPSILON=     F    determine dielectric tensor
   LRPA    =     F    only Hartree local field effects (RPA)
   LNABLA  =     F    use nabla operator in PAW spheres
   LVEL    =     F    velocity operator in full k-point grid
   CSHIFT  =0.1000    complex shift for real part using Kramers Kronig
   OMEGAMAX=  -1.0    maximum frequency
   DEG_THRESHOLD= 0.2000000E-02 threshold for treating states as degnerate
   RTIME   =   -0.100 relaxation time in fs
  (WPLASMAI=    0.000 imaginary part of plasma frequency in eV, 0.658/RTIME)
   DFIELD  = 0.0000000 0.0000000 0.0000000 field for delta impulse in time
 
  Optional k-point grid parameters
   LKPOINTS_OPT  =     F    use optional k-point grid
   KPOINTS_OPT_MODE=     1    mode for optional k-point grid
 
 Orbital magnetization related:
   ORBITALMAG=     F  switch on orbital magnetization
   LCHIMAG   =     F  perturbation theory with respect to B field
   DQ        =  0.001000  dq finite difference perturbation B field
   LLRAUG    =     F  two centre corrections for induced B field



--------------------------------------------------------------------------------------------------------


 conjugate gradient relaxation of ions
   using selective dynamics as specified on POSCAR
 charge density and potential will be updated during run
 non-spin polarized calculation
 RMM-DIIS sequential band-by-band and
  variant of blocked Davidson during initial phase
 perform sub-space diagonalisation
    before iterative eigenvector-optimisation
 modified Broyden-mixing scheme, WC =      100.0
 initial mixing is a Kerker type mixing with AMIX =  0.4000 and BMIX =      1.0000
 Hartree-type preconditioning will be used
 using additional bands           49
 real space projection scheme for non local part
 use partial core corrections
 calculate Harris-corrections to forces 
   (improved forces if not selfconsistent)
 use gradient corrections 
 use of overlap-Matrix (Vanderbilt PP)
 Gauss-broadening in eV      SIGMA  =   0.10


--------------------------------------------------------------------------------------------------------


  energy-cutoff  :      530.00
  volume of cell :     1814.20
      direct lattice vectors                 reciprocal lattice vectors
     9.284262000  0.000000000  0.000000000     0.107709153  0.000000000  0.000000000
     0.000000000 10.720542000  0.000000000     0.000000000  0.093278866  0.000000000
     0.000000000  0.000000000 18.227241000     0.000000000  0.000000000  0.054862938

  length of vectors
     9.284262000 10.720542000 18.227241000     0.107709153  0.093278866  0.054862938


 
 k-points in units of 2pi/SCALE and weight: K-Spacing Value to Generate K-Mesh: 0.03
   0.00000000  0.00000000  0.00000000       0.083
   0.02692729  0.00000000  0.00000000       0.167
   0.05385458  0.00000000  0.00000000       0.083
   0.00000000  0.03109296  0.00000000       0.167
   0.02692729  0.03109296  0.00000000       0.333
   0.05385458  0.03109296  0.00000000       0.167
 
 k-points in reciprocal lattice and weights: K-Spacing Value to Generate K-Mesh: 0.03
   0.00000000  0.00000000  0.00000000       0.083
   0.25000000  0.00000000  0.00000000       0.167
   0.50000000  0.00000000  0.00000000       0.083
   0.00000000  0.33333333  0.00000000       0.167
   0.25000000  0.33333333  0.00000000       0.333
   0.50000000  0.33333333  0.00000000       0.167
 
 position of ions in fractional coordinates (direct lattice) 
   0.00000000  0.00000000  0.31213000
   0.16666700  0.25000000  0.31213000
   0.00000000  0.33333300  0.45137100
   0.16666700  0.08333300  0.45137100
   0.00000000  0.16666600  0.03482200
   0.16666700  0.41666600  0.03482200
   0.00000000  0.33333300  0.17351800
   0.16666700  0.08333300  0.17351800
   0.33333300  0.00000000  0.31213000
   0.50000000  0.25000000  0.31213000
   0.33333300  0.33333400  0.45137100
   0.50000000  0.08333300  0.45137100
   0.33333300  0.16666600  0.03482200
   0.50000000  0.41666600  0.03482200
   0.33333300  0.33333400  0.17351800
   0.50000000  0.08333300  0.17351800
   0.66666700  0.00000000  0.31213000
   0.83333300  0.25000000  0.31213000
   0.66666700  0.33333300  0.45137100
   0.83333300  0.08333300  0.45137100
   0.66666700  0.16666600  0.03482200
   0.83333300  0.41666600  0.03482200
   0.66666700  0.33333300  0.17351800
   0.83333300  0.08333300  0.17351800
   0.00000000  0.50000000  0.31213000
   0.16666700  0.75000000  0.31213000
   0.00000000  0.83333300  0.45137100
   0.16666700  0.58333300  0.45137100
   0.00000000  0.66666600  0.03482200
   0.16666700  0.91666600  0.03482200
   0.00000000  0.83333300  0.17351800
   0.16666700  0.58333300  0.17351800
   0.33333300  0.50000000  0.31213000
   0.50000000  0.75000000  0.31213000
   0.33333300  0.83333300  0.45137100
   0.50000000  0.58333300  0.45137100
   0.33333300  0.66666600  0.03482200
   0.50000000  0.91666600  0.03482200
   0.33333300  0.83333300  0.17351800
   0.50000000  0.58333300  0.17351800
   0.66666700  0.50000000  0.31213000
   0.83333300  0.75000000  0.31213000
   0.66666700  0.83333300  0.45137100
   0.83333300  0.58333300  0.45137100
   0.66666700  0.66666600  0.03482200
   0.83333300  0.91666600  0.03482200
   0.66666700  0.83333300  0.17351800
   0.83333300  0.58333300  0.17351800
   0.00000000  0.00000000  0.00000000
   0.16666700  0.25000000  0.00000000
   0.00000000  0.00000000  0.41654900
   0.16666700  0.25000000  0.41654900
   0.00000000  0.16666600  0.13894900
   0.16666700  0.41666600  0.13894900
   0.00000000  0.33333300  0.27764900
   0.16666700  0.08333300  0.27764900
   0.33333300  0.00000000  0.00000000
   0.50000000  0.25000000  0.00000000
   0.33333300  0.00000000  0.41654900
   0.50000000  0.25000000  0.41654900
   0.33333300  0.16666600  0.13894900
   0.50000000  0.41666600  0.13894900
   0.33333300  0.33333400  0.27764900
   0.50000000  0.08333300  0.27764900
   0.66666700  0.00000000  0.00000000
   0.83333300  0.25000000  0.00000000
   0.66666700  0.00000000  0.41654900
   0.83333300  0.25000000  0.41654900
   0.66666700  0.16666600  0.13894900
   0.83333300  0.41666600  0.13894900
   0.66666700  0.33333300  0.27764900
   0.83333300  0.08333300  0.27764900
   0.00000000  0.50000000  0.00000000
   0.16666700  0.75000000  0.00000000
   0.00000000  0.50000000  0.41654900
   0.16666700  0.75000000  0.41654900
   0.00000000  0.66666600  0.13894900
   0.16666700  0.91666600  0.13894900
   0.00000000  0.83333300  0.27764900
   0.16666700  0.58333300  0.27764900
   0.33333300  0.50000000  0.00000000
   0.50000000  0.75000000  0.00000000
   0.33333300  0.50000000  0.41654900
   0.50000000  0.75000000  0.41654900
   0.33333300  0.66666600  0.13894900
   0.50000000  0.91666600  0.13894900
   0.33333300  0.83333300  0.27764900
   0.50000000  0.58333300  0.27764900
   0.66666700  0.50000000  0.00000000
   0.83333300  0.75000000  0.00000000
   0.66666700  0.50000000  0.41654900
   0.83333300  0.75000000  0.41654900
   0.66666700  0.66666600  0.13894900
   0.83333300  0.91666600  0.13894900
   0.66666700  0.83333300  0.27764900
   0.83333300  0.58333300  0.27764900
 
 position of ions in cartesian coordinates  (Angst):
   0.00000000  0.00000000  5.68926873
   1.54738009  2.68013550  5.68926873
   0.00000000  3.57351043  8.22724800
   1.54738009  0.89337493  8.22724800
   0.00000000  1.78674985  0.63470899
   1.54738009  4.46688535  0.63470899
   0.00000000  3.57351043  3.16275440
   1.54738009  0.89337493  3.16275440
   3.09475091  0.00000000  5.68926873
   4.64213100  2.68013550  5.68926873
   3.09475091  3.57352115  8.22724800
   4.64213100  0.89337493  8.22724800
   3.09475091  1.78674985  0.63470899
   4.64213100  4.46688535  0.63470899
   3.09475091  3.57352115  3.16275440
   4.64213100  0.89337493  3.16275440
   6.18951109  0.00000000  5.68926873
   7.73688191  2.68013550  5.68926873
   6.18951109  3.57351043  8.22724800
   7.73688191  0.89337493  8.22724800
   6.18951109  1.78674985  0.63470899
   7.73688191  4.46688535  0.63470899
   6.18951109  3.57351043  3.16275440
   7.73688191  0.89337493  3.16275440
   0.00000000  5.36027100  5.68926873
   1.54738009  8.04040650  5.68926873
   0.00000000  8.93378143  8.22724800
   1.54738009  6.25364593  8.22724800
   0.00000000  7.14702085  0.63470899
   1.54738009  9.82715635  0.63470899
   0.00000000  8.93378143  3.16275440
   1.54738009  6.25364593  3.16275440
   3.09475091  5.36027100  5.68926873
   4.64213100  8.04040650  5.68926873
   3.09475091  8.93378143  8.22724800
   4.64213100  6.25364593  8.22724800
   3.09475091  7.14702085  0.63470899
   4.64213100  9.82715635  0.63470899
   3.09475091  8.93378143  3.16275440
   4.64213100  6.25364593  3.16275440
   6.18951109  5.36027100  5.68926873
   7.73688191  8.04040650  5.68926873
   6.18951109  8.93378143  8.22724800
   7.73688191  6.25364593  8.22724800
   6.18951109  7.14702085  0.63470899
   7.73688191  9.82715635  0.63470899
   6.18951109  8.93378143  3.16275440
   7.73688191  6.25364593  3.16275440
   0.00000000  0.00000000  0.00000000
   1.54738009  2.68013550  0.00000000
   0.00000000  0.00000000  7.59253901
   1.54738009  2.68013550  7.59253901
   0.00000000  1.78674985  2.53265691
   1.54738009  4.46688535  2.53265691
   0.00000000  3.57351043  5.06077524
   1.54738009  0.89337493  5.06077524
   3.09475091  0.00000000  0.00000000
   4.64213100  2.68013550  0.00000000
   3.09475091  0.00000000  7.59253901
   4.64213100  2.68013550  7.59253901
   3.09475091  1.78674985  2.53265691
   4.64213100  4.46688535  2.53265691
   3.09475091  3.57352115  5.06077524
   4.64213100  0.89337493  5.06077524
   6.18951109  0.00000000  0.00000000
   7.73688191  2.68013550  0.00000000
   6.18951109  0.00000000  7.59253901
   7.73688191  2.68013550  7.59253901
   6.18951109  1.78674985  2.53265691
   7.73688191  4.46688535  2.53265691
   6.18951109  3.57351043  5.06077524
   7.73688191  0.89337493  5.06077524
   0.00000000  5.36027100  0.00000000
   1.54738009  8.04040650  0.00000000
   0.00000000  5.36027100  7.59253901
   1.54738009  8.04040650  7.59253901
   0.00000000  7.14702085  2.53265691
   1.54738009  9.82715635  2.53265691
   0.00000000  8.93378143  5.06077524
   1.54738009  6.25364593  5.06077524
   3.09475091  5.36027100  0.00000000
   4.64213100  8.04040650  0.00000000
   3.09475091  5.36027100  7.59253901
   4.64213100  8.04040650  7.59253901
   3.09475091  7.14702085  2.53265691
   4.64213100  9.82715635  2.53265691
   3.09475091  8.93378143  5.06077524
   4.64213100  6.25364593  5.06077524
   6.18951109  5.36027100  0.00000000
   7.73688191  8.04040650  0.00000000
   6.18951109  5.36027100  7.59253901
   7.73688191  8.04040650  7.59253901
   6.18951109  7.14702085  2.53265691
   7.73688191  9.82715635  2.53265691
   6.18951109  8.93378143  5.06077524
   7.73688191  6.25364593  5.06077524
 


--------------------------------------------------------------------------------------------------------


 k-point   1 :   0.0000 0.0000 0.0000  plane waves:   50331
 k-point   2 :   0.2500 0.0000 0.0000  plane waves:   50277
 k-point   3 :   0.5000 0.0000 0.0000  plane waves:   50294
 k-point   4 :   0.0000 0.3333 0.0000  plane waves:   50286
 k-point   5 :   0.2500 0.3333 0.0000  plane waves:   50262
 k-point   6 :   0.5000 0.3333 0.0000  plane waves:   50250

 maximum and minimum number of plane-waves per node :     50331    50250

 maximum number of plane-waves:     50331
 maximum index in each direction: 
   IXMAX=   17   IYMAX=   20   IZMAX=   34
   IXMIN=  -17   IYMIN=  -20   IZMIN=  -34


 serial   3D FFT for wavefunctions
 parallel 3D FFT for charge:
    minimum data exchange during FFTs selected (reduces bandwidth)


 total amount of memory used by VASP MPI-rank0  1046244. kBytes
=======================================================================

   base      :      30000. kBytes
   nonlr-proj:      22546. kBytes
   fftplans  :     214856. kBytes
   grid      :     384473. kBytes
   one-center:        294. kBytes
   wavefun   :     394075. kBytes
 
     INWAV:  cpu time      0.0003: real time      0.0000
 Broyden mixing: mesh for mixing (old mesh)
   NGX = 35   NGY = 41   NGZ = 69
  (NGX  =140   NGY  =160   NGZ  =280)
  gives a total of  99015 points

 initial charge density was supplied:
 charge density of overlapping atoms calculated
 number of electron     384.0000000 magnetization 
 keeping initial charge density in first step


--------------------------------------------------------------------------------------------------------


 Maximum index for non-local projection operator         3039
 Maximum index for augmentation-charges        14047 (set IRDMAX)


--------------------------------------------------------------------------------------------------------


 First call to EWALD:  gamma=   0.145
 Maximum number of real-space cells 3x 3x 2
 Maximum number of reciprocal cells 2x 2x 4

    FEWALD:  cpu time      0.0182: real time      0.0091


--------------------------------------- Iteration      1(   1)  ---------------------------------------


    POTLOK:  cpu time      8.6333: real time      1.3167
    SETDIJ:  cpu time      0.6987: real time      0.0998
     EDDAV:  cpu time     45.3041: real time      6.4926
       DOS:  cpu time      0.0187: real time      0.0027
    --------------------------------------------
      LOOP:  cpu time     54.6554: real time      7.9119

 eigenvalue-minimisations  :  2892
 total energy-change (2. order) : 0.2093119E+04  (-0.1635180E+05)
 number of electron     384.0000000 magnetization 
 augmentation part      384.0000000 magnetization 

 Free energy of the ion-electron system (eV)
  ---------------------------------------------------
  alpha Z        PSCENC =       292.45958487
  Ewald energy   TEWEN  =     29164.43799919
  -Hartree energ DENC   =    -40869.31343296
  -exchange      EXHF   =         0.00000000
  -V(xc)+E(xc)   XCENC  =       227.64285616
  PAW double counting   =      3398.83426340    -2609.57693563
  entropy T*S    EENTRO =        -0.10119248
  eigenvalues    EBANDS =       478.39290743
  atomic energy  EATOM  =     12010.34264613
  Solvation  Ediel_sol  =         0.00000000
  ---------------------------------------------------
  free energy    TOTEN  =      2093.11869612 eV

  energy without entropy =     2093.21988859  energy(sigma->0) =     2093.16929235


--------------------------------------------------------------------------------------------------------




--------------------------------------- Iteration      1(   2)  ---------------------------------------


     EDDAV:  cpu time     54.8432: real time      7.8490
       DOS:  cpu time      0.0094: real time      0.0013
    --------------------------------------------
      LOOP:  cpu time     54.8523: real time      7.8503

 eigenvalue-minimisations  :  3714
 total energy-change (2. order) :-0.2555510E+04  (-0.2441030E+04)
 number of electron     384.0000000 magnetization 
 augmentation part      384.0000000 magnetization 

 Free energy of the ion-electron system (eV)
  ---------------------------------------------------
  alpha Z        PSCENC =       292.45958487
  Ewald energy   TEWEN  =     29164.43799919
  -Hartree energ DENC   =    -40869.31343296
  -exchange      EXHF   =         0.00000000
  -V(xc)+E(xc)   XCENC  =       227.64285616
  PAW double counting   =      3398.83426340    -2609.57693563
  entropy T*S    EENTRO =        -0.00000000
  eigenvalues    EBANDS =     -2077.21785650
  atomic energy  EATOM  =     12010.34264613
  Solvation  Ediel_sol  =         0.00000000
  ---------------------------------------------------
  free energy    TOTEN  =      -462.39087534 eV

  energy without entropy =     -462.39087534  energy(sigma->0) =     -462.39087534


--------------------------------------------------------------------------------------------------------




--------------------------------------- Iteration      1(   3)  ---------------------------------------


     EDDAV:  cpu time     54.8448: real time      7.8512
       DOS:  cpu time      0.0097: real time      0.0014
    --------------------------------------------
      LOOP:  cpu time     54.8545: real time      7.8525

 eigenvalue-minimisations  :  3656
 total energy-change (2. order) :-0.3026693E+03  (-0.2975584E+03)
 number of electron     384.0000000 magnetization 
 augmentation part      384.0000000 magnetization 

 Free energy of the ion-electron system (eV)
  ---------------------------------------------------
  alpha Z        PSCENC =       292.45958487
  Ewald energy   TEWEN  =     29164.43799919
  -Hartree energ DENC   =    -40869.31343296
  -exchange      EXHF   =         0.00000000
  -V(xc)+E(xc)   XCENC  =       227.64285616
  PAW double counting   =      3398.83426340    -2609.57693563
  entropy T*S    EENTRO =        -0.00000000
  eigenvalues    EBANDS =     -2379.88714155
  atomic energy  EATOM  =     12010.34264613
  Solvation  Ediel_sol  =         0.00000000
  ---------------------------------------------------
  free energy    TOTEN  =      -765.06016039 eV

  energy without entropy =     -765.06016039  energy(sigma->0) =     -765.06016039


--------------------------------------------------------------------------------------------------------




--------------------------------------- Iteration      1(   4)  ---------------------------------------


     EDDAV:  cpu time     56.5857: real time      8.0969
       DOS:  cpu time      0.0098: real time      0.0014
    --------------------------------------------
      LOOP:  cpu time     56.5955: real time      8.0983

 eigenvalue-minimisations  :  3928
 total energy-change (2. order) :-0.1677945E+02  (-0.1673204E+02)
 number of electron     384.0000000 magnetization 
 augmentation part      384.0000000 magnetization 

 Free energy of the ion-electron system (eV)
  ---------------------------------------------------
  alpha Z        PSCENC =       292.45958487
  Ewald energy   TEWEN  =     29164.43799919
  -Hartree energ DENC   =    -40869.31343296
  -exchange      EXHF   =         0.00000000
  -V(xc)+E(xc)   XCENC  =       227.64285616
  PAW double counting   =      3398.83426340    -2609.57693563
  entropy T*S    EENTRO =        -0.00000000
  eigenvalues    EBANDS =     -2396.66658899
  atomic energy  EATOM  =     12010.34264613
  Solvation  Ediel_sol  =         0.00000000
  ---------------------------------------------------
  free energy    TOTEN  =      -781.83960783 eV

  energy without entropy =     -781.83960783  energy(sigma->0) =     -781.83960783


--------------------------------------------------------------------------------------------------------




--------------------------------------- Iteration      1(   5)  ---------------------------------------


     EDDAV:  cpu time     58.0994: real time      8.3290
       DOS:  cpu time      0.0103: real time      0.0015
    CHARGE:  cpu time      3.1180: real time      0.6815
    MIXING:  cpu time      0.5894: real time      0.0843
    --------------------------------------------
      LOOP:  cpu time     61.8177: real time      9.0964

 eigenvalue-minimisations  :  3912
 total energy-change (2. order) :-0.5427371E+00  (-0.5422311E+00)
 number of electron     384.0000023 magnetization 
 augmentation part       -2.3513798 magnetization 

 Broyden mixing:
  rms(total) = 0.50071E+01    rms(broyden)= 0.50066E+01
  rms(prec ) = 0.66326E+01
  weight for this iteration     100.00

 Free energy of the ion-electron system (eV)
  ---------------------------------------------------
  alpha Z        PSCENC =       292.45958487
  Ewald energy   TEWEN  =     29164.43799919
  -Hartree energ DENC   =    -40869.31343296
  -exchange      EXHF   =         0.00000000
  -V(xc)+E(xc)   XCENC  =       227.64285616
  PAW double counting   =      3398.83426340    -2609.57693563
  entropy T*S    EENTRO =        -0.00000000
  eigenvalues    EBANDS =     -2397.20932613
  atomic energy  EATOM  =     12010.34264613
  Solvation  Ediel_sol  =         0.00000000
  ---------------------------------------------------
  free energy    TOTEN  =      -782.38234497 eV

  energy without entropy =     -782.38234497  energy(sigma->0) =     -782.38234497


--------------------------------------------------------------------------------------------------------




--------------------------------------- Iteration      1(   6)  ---------------------------------------


    POTLOK:  cpu time      8.4062: real time      1.2791
    SETDIJ:  cpu time      0.6110: real time      0.0873
    EDDIAG:  cpu time      3.4894: real time      0.7861
  RMM-DIIS:  cpu time      6.8496: real time      3.0070
    ORTHCH:  cpu time      0.1211: real time      0.0614
       DOS:  cpu time      0.0047: real time      0.0024
    CHARGE:  cpu time      2.2572: real time      0.6907
    MIXING:  cpu time      0.5645: real time      0.0806
    --------------------------------------------
      LOOP:  cpu time     22.3038: real time      5.9946

 eigenvalue-minimisations  :  2915
 total energy-change (2. order) : 0.8380871E+02  (-0.2895089E+02)
 number of electron     384.0000002 magnetization 
 augmentation part       -6.0535758 magnetization 

 Broyden mixing:
  rms(total) = 0.27628E+01    rms(broyden)= 0.27618E+01
  rms(prec ) = 0.48200E+01
  weight for this iteration     100.00

 eigenvalues of (default mixing * dielectric matrix)
  average eigenvalue GAMMA=   0.7996
  0.7996

 Free energy of the ion-electron system (eV)
  ---------------------------------------------------
  alpha Z        PSCENC =       292.45958487
  Ewald energy   TEWEN  =     29164.43799919
  -Hartree energ DENC   =    -41357.73684074
  -exchange      EXHF   =         0.00000000
  -V(xc)+E(xc)   XCENC  =       262.07622756
  PAW double counting   =      4266.31445559    -3483.13454962
  entropy T*S    EENTRO =        -0.07933898
  eigenvalues    EBANDS =     -1853.25381714
  atomic energy  EATOM  =     12010.34264613
  Solvation  Ediel_sol  =         0.00000000
  ---------------------------------------------------
  free energy    TOTEN  =      -698.57363315 eV

  energy without entropy =     -698.49429417  energy(sigma->0) =     -698.53396366


--------------------------------------------------------------------------------------------------------




--------------------------------------- Iteration      1(   7)  ---------------------------------------


    POTLOK:  cpu time      8.5248: real time      1.2916
    SETDIJ:  cpu time      0.5844: real time      0.0835
    EDDIAG:  cpu time      3.4987: real time      0.7824
  RMM-DIIS:  cpu time      7.0675: real time      3.1162
    ORTHCH:  cpu time      0.1213: real time      0.0614
       DOS:  cpu time      0.0048: real time      0.0024
    CHARGE:  cpu time      2.2487: real time      0.6851
    MIXING:  cpu time      0.5245: real time      0.0750
    --------------------------------------------
      LOOP:  cpu time     22.5747: real time      6.0976

 eigenvalue-minimisations  :  2979
 total energy-change (2. order) : 0.1965111E+02  (-0.5589417E+01)
 number of electron     384.0000018 magnetization 
 augmentation part       -5.4574202 magnetization 

 Broyden mixing:
  rms(total) = 0.16454E+01    rms(broyden)= 0.16446E+01
  rms(prec ) = 0.32957E+01
  weight for this iteration     100.00

 eigenvalues of (default mixing * dielectric matrix)
  average eigenvalue GAMMA=   0.8226
  1.2234  0.4219

 Free energy of the ion-electron system (eV)
  ---------------------------------------------------
  alpha Z        PSCENC =       292.45958487
  Ewald energy   TEWEN  =     29164.43799919
  -Hartree energ DENC   =    -41395.44891781
  -exchange      EXHF   =         0.00000000
  -V(xc)+E(xc)   XCENC  =       265.12146834
  PAW double counting   =      4392.09416270    -3610.26588749
  entropy T*S    EENTRO =        -0.00262940
  eigenvalues    EBANDS =     -1797.66094646
  atomic energy  EATOM  =     12010.34264613
  Solvation  Ediel_sol  =         0.00000000
  ---------------------------------------------------
  free energy    TOTEN  =      -678.92251993 eV

  energy without entropy =     -678.91989053  energy(sigma->0) =     -678.92120523


--------------------------------------------------------------------------------------------------------




--------------------------------------- Iteration      1(   8)  ---------------------------------------


    POTLOK:  cpu time      8.6638: real time      1.3158
    SETDIJ:  cpu time      0.6583: real time      0.0943
    EDDIAG:  cpu time      3.4658: real time      0.7825
  RMM-DIIS:  cpu time      7.5223: real time      3.3845
    ORTHCH:  cpu time      0.1210: real time      0.0613
       DOS:  cpu time      0.0054: real time      0.0027
    CHARGE:  cpu time      2.2485: real time      0.6862
    MIXING:  cpu time      0.5888: real time      0.0844
    --------------------------------------------
      LOOP:  cpu time     23.2737: real time      6.4116

 eigenvalue-minimisations  :  3258
 total energy-change (2. order) : 0.5632157E+00  (-0.2748196E+01)
 number of electron     384.0000000 magnetization 
 augmentation part       -7.0970370 magnetization 

 Broyden mixing:
  rms(total) = 0.17185E+01    rms(broyden)= 0.17177E+01
  rms(prec ) = 0.34046E+01
  weight for this iteration     100.00

 eigenvalues of (default mixing * dielectric matrix)
  average eigenvalue GAMMA=   1.0454
  1.4100  1.4100  0.3163

 Free energy of the ion-electron system (eV)
  ---------------------------------------------------
  alpha Z        PSCENC =       292.45958487
  Ewald energy   TEWEN  =     29164.43799919
  -Hartree energ DENC   =    -41511.88299137
  -exchange      EXHF   =         0.00000000
  -V(xc)+E(xc)   XCENC  =       272.46363814
  PAW double counting   =      4593.85202869    -3813.26811984
  entropy T*S    EENTRO =        -0.12608246
  eigenvalues    EBANDS =     -1686.63800755
  atomic energy  EATOM  =     12010.34264613
  Solvation  Ediel_sol  =         0.00000000
  ---------------------------------------------------
  free energy    TOTEN  =      -678.35930419 eV

  energy without entropy =     -678.23322173  energy(sigma->0) =     -678.29626296


--------------------------------------------------------------------------------------------------------




--------------------------------------- Iteration      1(   9)  ---------------------------------------


    POTLOK:  cpu time      8.6430: real time      1.3128
    SETDIJ:  cpu time      0.5590: real time      0.0804
    EDDIAG:  cpu time      3.5005: real time      0.7822
  RMM-DIIS:  cpu time      6.7504: real time      2.9511
    ORTHCH:  cpu time      0.1210: real time      0.0613
       DOS:  cpu time      0.0045: real time      0.0023
    CHARGE:  cpu time      2.2569: real time      0.6874
    MIXING:  cpu time      0.5461: real time      0.0783
    --------------------------------------------
      LOOP:  cpu time     22.3816: real time      5.9556

 eigenvalue-minimisations  :  2927
 total energy-change (2. order) : 0.7497004E+00  (-0.3617358E+00)
 number of electron     384.0000016 magnetization 
 augmentation part       -5.9253092 magnetization 

 Broyden mixing:
  rms(total) = 0.13301E+01    rms(broyden)= 0.13292E+01
  rms(prec ) = 0.30321E+01
  weight for this iteration     100.00

 eigenvalues of (default mixing * dielectric matrix)
  average eigenvalue GAMMA=   1.1829
  2.3723  1.3642  0.7221  0.2732

 Free energy of the ion-electron system (eV)
  ---------------------------------------------------
  alpha Z        PSCENC =       292.45958487
  Ewald energy   TEWEN  =     29164.43799919
  -Hartree energ DENC   =    -41486.93731937
  -exchange      EXHF   =         0.00000000
  -V(xc)+E(xc)   XCENC  =       271.53025571
  PAW double counting   =      4589.38189754    -3809.09723824
  entropy T*S    EENTRO =        -0.00905213
  eigenvalues    EBANDS =     -1709.71837752
  atomic energy  EATOM  =     12010.34264613
  Solvation  Ediel_sol  =         0.00000000
  ---------------------------------------------------
  free energy    TOTEN  =      -677.60960383 eV

  energy without entropy =     -677.60055169  energy(sigma->0) =     -677.60507776


--------------------------------------------------------------------------------------------------------




--------------------------------------- Iteration      1(  10)  ---------------------------------------


    POTLOK:  cpu time      8.6432: real time      1.3143
    SETDIJ:  cpu time      0.5607: real time      0.0804
    EDDIAG:  cpu time      3.5045: real time      0.7842
  RMM-DIIS:  cpu time      7.0329: real time      3.1019
    ORTHCH:  cpu time      0.1210: real time      0.0613
       DOS:  cpu time      0.0052: real time      0.0026
    CHARGE:  cpu time      2.2502: real time      0.6913
    MIXING:  cpu time      0.5696: real time      0.0815
    --------------------------------------------
      LOOP:  cpu time     22.6873: real time      6.1174

 eigenvalue-minimisations  :  2929
 total energy-change (2. order) : 0.4398928E+01  (-0.2186169E+00)
 number of electron     384.0000012 magnetization 
 augmentation part       -6.1893858 magnetization 

 Broyden mixing:
  rms(total) = 0.56284E+00    rms(broyden)= 0.56280E+00
  rms(prec ) = 0.13064E+01
  weight for this iteration     100.00

 eigenvalues of (default mixing * dielectric matrix)
  average eigenvalue GAMMA=   1.0694
  2.4500  1.3112  0.2767  0.6546  0.6546

 Free energy of the ion-electron system (eV)
  ---------------------------------------------------
  alpha Z        PSCENC =       292.45958487
  Ewald energy   TEWEN  =     29164.43799919
  -Hartree energ DENC   =    -41535.44919242
  -exchange      EXHF   =         0.00000000
  -V(xc)+E(xc)   XCENC  =       273.54751288
  PAW double counting   =      4650.04104790    -3870.26141042
  entropy T*S    EENTRO =        -0.31063305
  eigenvalues    EBANDS =     -1658.01823108
  atomic energy  EATOM  =     12010.34264613
  Solvation  Ediel_sol  =         0.00000000
  ---------------------------------------------------
  free energy    TOTEN  =      -673.21067600 eV

  energy without entropy =     -672.90004294  energy(sigma->0) =     -673.05535947


--------------------------------------------------------------------------------------------------------




--------------------------------------- Iteration      1(  11)  ---------------------------------------


    POTLOK:  cpu time      8.5749: real time      1.3020
    SETDIJ:  cpu time      0.5782: real time      0.0826
    EDDIAG:  cpu time      3.4985: real time      0.7821
  RMM-DIIS:  cpu time      7.8185: real time      3.4980
    ORTHCH:  cpu time      0.1212: real time      0.0614
       DOS:  cpu time      0.0051: real time      0.0026
    CHARGE:  cpu time      2.2508: real time      0.6863
    MIXING:  cpu time      0.5677: real time      0.0811
    --------------------------------------------
      LOOP:  cpu time     23.4149: real time      6.4960

 eigenvalue-minimisations  :  3285
 total energy-change (2. order) : 0.2489398E+00  (-0.3690207E-01)
 number of electron     384.0000011 magnetization 
 augmentation part       -6.2404814 magnetization 

 Broyden mixing:
  rms(total) = 0.46008E+00    rms(broyden)= 0.46007E+00
  rms(prec ) = 0.10512E+01
  weight for this iteration     100.00

 eigenvalues of (default mixing * dielectric matrix)
  average eigenvalue GAMMA=   1.1290
  2.3333  1.2151  1.0859  1.0859  0.2753  0.7784

 Free energy of the ion-electron system (eV)
  ---------------------------------------------------
  alpha Z        PSCENC =       292.45958487
  Ewald energy   TEWEN  =     29164.43799919
  -Hartree energ DENC   =    -41555.42546339
  -exchange      EXHF   =         0.00000000
  -V(xc)+E(xc)   XCENC  =       274.14645565
  PAW double counting   =      4661.80053756    -3882.01294346
  entropy T*S    EENTRO =        -0.33898710
  eigenvalues    EBANDS =     -1638.37156563
  atomic energy  EATOM  =     12010.34264613
  Solvation  Ediel_sol  =         0.00000000
  ---------------------------------------------------
  free energy    TOTEN  =      -672.96173617 eV

  energy without entropy =     -672.62274907  energy(sigma->0) =     -672.79224262


--------------------------------------------------------------------------------------------------------




--------------------------------------- Iteration      1(  12)  ---------------------------------------


    POTLOK:  cpu time      8.5428: real time      1.2962
    SETDIJ:  cpu time      0.6345: real time      0.0907
    EDDIAG:  cpu time      3.4661: real time      0.7831
  RMM-DIIS:  cpu time      7.2418: real time      3.2057
    ORTHCH:  cpu time      0.1212: real time      0.0614
       DOS:  cpu time      0.0056: real time      0.0028
    CHARGE:  cpu time      2.2495: real time      0.6867
    MIXING:  cpu time      0.5746: real time      0.0827
    --------------------------------------------
      LOOP:  cpu time     22.8361: real time      6.2092

 eigenvalue-minimisations  :  3034
 total energy-change (2. order) : 0.7947930E-01  (-0.9686269E-01)
 number of electron     384.0000006 magnetization 
 augmentation part       -6.7343311 magnetization 

 Broyden mixing:
  rms(total) = 0.46332E+00    rms(broyden)= 0.46289E+00
  rms(prec ) = 0.10308E+01
  weight for this iteration     100.00

 eigenvalues of (default mixing * dielectric matrix)
  average eigenvalue GAMMA=   1.2536
  2.4216  1.6692  1.3843  1.3843  0.8679  0.7722  0.2752

 Free energy of the ion-electron system (eV)
  ---------------------------------------------------
  alpha Z        PSCENC =       292.45958487
  Ewald energy   TEWEN  =     29164.43799919
  -Hartree energ DENC   =    -41605.95345053
  -exchange      EXHF   =         0.00000000
  -V(xc)+E(xc)   XCENC  =       275.44522416
  PAW double counting   =      4677.74241325    -3897.80922213
  entropy T*S    EENTRO =        -0.37076245
  eigenvalues    EBANDS =     -1589.17668936
  atomic energy  EATOM  =     12010.34264613
  Solvation  Ediel_sol  =         0.00000000
  ---------------------------------------------------
  free energy    TOTEN  =      -672.88225688 eV

  energy without entropy =     -672.51149443  energy(sigma->0) =     -672.69687565


--------------------------------------------------------------------------------------------------------




--------------------------------------- Iteration      1(  13)  ---------------------------------------


    POTLOK:  cpu time      8.6256: real time      1.3125
    SETDIJ:  cpu time      0.5646: real time      0.0808
    EDDIAG:  cpu time      3.5178: real time      0.7839
  RMM-DIIS:  cpu time      6.9889: real time      3.0803
    ORTHCH:  cpu time      0.1211: real time      0.0613
       DOS:  cpu time      0.0049: real time      0.0024
    CHARGE:  cpu time      2.2476: real time      0.6847
    MIXING:  cpu time      0.6019: real time      0.0860
    --------------------------------------------
      LOOP:  cpu time     22.6724: real time      6.0920

 eigenvalue-minimisations  :  2912
 total energy-change (2. order) : 0.1865826E+00  (-0.2090195E-01)
 number of electron     384.0000010 magnetization 
 augmentation part       -6.3734610 magnetization 

 Broyden mixing:
  rms(total) = 0.32085E+00    rms(broyden)= 0.32061E+00
  rms(prec ) = 0.76650E+00
  weight for this iteration     100.00

 eigenvalues of (default mixing * dielectric matrix)
  average eigenvalue GAMMA=   1.2638
  2.6096  2.2040  0.2752  1.1343  1.1343  1.0356  1.0356  0.6819

 Free energy of the ion-electron system (eV)
  ---------------------------------------------------
  alpha Z        PSCENC =       292.45958487
  Ewald energy   TEWEN  =     29164.43799919
  -Hartree energ DENC   =    -41610.70236300
  -exchange      EXHF   =         0.00000000
  -V(xc)+E(xc)   XCENC  =       274.88818870
  PAW double counting   =      4659.44494665    -3879.42399685
  entropy T*S    EENTRO =        -0.36242538
  eigenvalues    EBANDS =     -1583.78025459
  atomic energy  EATOM  =     12010.34264613
  Solvation  Ediel_sol  =         0.00000000
  ---------------------------------------------------
  free energy    TOTEN  =      -672.69567427 eV

  energy without entropy =     -672.33324889  energy(sigma->0) =     -672.51446158


--------------------------------------------------------------------------------------------------------




--------------------------------------- Iteration      1(  14)  ---------------------------------------


    POTLOK:  cpu time      8.6132: real time      1.3074
    SETDIJ:  cpu time      0.6108: real time      0.0873
    EDDIAG:  cpu time      3.4812: real time      0.7836
  RMM-DIIS:  cpu time      7.2300: real time      3.1975
    ORTHCH:  cpu time      0.1210: real time      0.0613
       DOS:  cpu time      0.0048: real time      0.0024
    CHARGE:  cpu time      2.2801: real time      0.6999
    MIXING:  cpu time      0.6305: real time      0.0901
    --------------------------------------------
      LOOP:  cpu time     22.9715: real time      6.2294

 eigenvalue-minimisations  :  3036
 total energy-change (2. order) : 0.1262762E+00  (-0.5889334E-02)
 number of electron     384.0000007 magnetization 
 augmentation part       -6.5942987 magnetization 

 Broyden mixing:
  rms(total) = 0.17976E+00    rms(broyden)= 0.17958E+00
  rms(prec ) = 0.41241E+00
  weight for this iteration     100.00

 eigenvalues of (default mixing * dielectric matrix)
  average eigenvalue GAMMA=   1.2572
  2.7673  2.4405  1.3096  1.1056  1.1056  0.2752  0.9850  0.7870  0.5387

 Free energy of the ion-electron system (eV)
  ---------------------------------------------------
  alpha Z        PSCENC =       292.45958487
  Ewald energy   TEWEN  =     29164.43799919
  -Hartree energ DENC   =    -41640.97135900
  -exchange      EXHF   =         0.00000000
  -V(xc)+E(xc)   XCENC  =       275.23756024
  PAW double counting   =      4660.27055015    -3880.18602154
  entropy T*S    EENTRO =        -0.39230649
  eigenvalues    EBANDS =     -1553.76805163
  atomic energy  EATOM  =     12010.34264613
  Solvation  Ediel_sol  =         0.00000000
  ---------------------------------------------------
  free energy    TOTEN  =      -672.56939808 eV

  energy without entropy =     -672.17709159  energy(sigma->0) =     -672.37324483


--------------------------------------------------------------------------------------------------------




--------------------------------------- Iteration      1(  15)  ---------------------------------------


    POTLOK:  cpu time      8.6127: real time      1.3072
    SETDIJ:  cpu time      0.5637: real time      0.0806
    EDDIAG:  cpu time      3.5074: real time      0.7813
  RMM-DIIS:  cpu time      7.6534: real time      3.4119
    ORTHCH:  cpu time      0.1210: real time      0.0613
       DOS:  cpu time      0.0049: real time      0.0024
    CHARGE:  cpu time      2.2495: real time      0.6851
    MIXING:  cpu time      0.6601: real time      0.0944
    --------------------------------------------
      LOOP:  cpu time     23.3726: real time      6.4241

 eigenvalue-minimisations  :  3247
 total energy-change (2. order) : 0.3472169E-01  (-0.3479770E-02)
 number of electron     384.0000008 magnetization 
 augmentation part       -6.5448429 magnetization 

 Broyden mixing:
  rms(total) = 0.70430E-01    rms(broyden)= 0.70425E-01
  rms(prec ) = 0.14917E+00
  weight for this iteration     100.00

 eigenvalues of (default mixing * dielectric matrix)
  average eigenvalue GAMMA=   1.5151
  3.9704  2.9276  2.2091  0.2752  1.0562  1.0562  1.2430  0.9016  0.9016  0.6103

 Free energy of the ion-electron system (eV)
  ---------------------------------------------------
  alpha Z        PSCENC =       292.45958487
  Ewald energy   TEWEN  =     29164.43799919
  -Hartree energ DENC   =    -41661.26560867
  -exchange      EXHF   =         0.00000000
  -V(xc)+E(xc)   XCENC  =       275.36260531
  PAW double counting   =      4659.62093521    -3879.52417003
  entropy T*S    EENTRO =        -0.39455811
  eigenvalues    EBANDS =     -1533.57411028
  atomic energy  EATOM  =     12010.34264613
  Solvation  Ediel_sol  =         0.00000000
  ---------------------------------------------------
  free energy    TOTEN  =      -672.53467639 eV

  energy without entropy =     -672.14011828  energy(sigma->0) =     -672.33739733


--------------------------------------------------------------------------------------------------------




--------------------------------------- Iteration      1(  16)  ---------------------------------------


    POTLOK:  cpu time      8.6410: real time      1.3120
    SETDIJ:  cpu time      0.5659: real time      0.0808
    EDDIAG:  cpu time      3.5077: real time      0.7816
  RMM-DIIS:  cpu time      7.4962: real time      3.3192
    ORTHCH:  cpu time      0.1188: real time      0.0597
       DOS:  cpu time      0.0050: real time      0.0025
    CHARGE:  cpu time      2.2384: real time      0.6820
    MIXING:  cpu time      0.7159: real time      0.1025
    --------------------------------------------
      LOOP:  cpu time     23.2890: real time      6.3403

 eigenvalue-minimisations  :  3294
 total energy-change (2. order) :-0.4323943E-01  (-0.7120780E-02)
 number of electron     384.0000007 magnetization 
 augmentation part       -6.5824069 magnetization 

 Broyden mixing:
  rms(total) = 0.19395E+00    rms(broyden)= 0.19393E+00
  rms(prec ) = 0.46332E+00
  weight for this iteration     100.00

 eigenvalues of (default mixing * dielectric matrix)
  average eigenvalue GAMMA=   1.5930
  5.2863  2.6926  1.8856  1.8856  0.2752  1.0470  1.0470  1.1296  0.9026  0.7838
  0.5876

 Free energy of the ion-electron system (eV)
  ---------------------------------------------------
  alpha Z        PSCENC =       292.45958487
  Ewald energy   TEWEN  =     29164.43799919
  -Hartree energ DENC   =    -41692.39651880
  -exchange      EXHF   =         0.00000000
  -V(xc)+E(xc)   XCENC  =       275.34935325
  PAW double counting   =      4655.37063976    -3875.28853541
  entropy T*S    EENTRO =        -0.39639252
  eigenvalues    EBANDS =     -1502.45669229
  atomic energy  EATOM  =     12010.34264613
  Solvation  Ediel_sol  =         0.00000000
  ---------------------------------------------------
  free energy    TOTEN  =      -672.57791582 eV

  energy without entropy =     -672.18152330  energy(sigma->0) =     -672.37971956


--------------------------------------------------------------------------------------------------------




--------------------------------------- Iteration      1(  17)  ---------------------------------------


    POTLOK:  cpu time      8.6500: real time      1.3154
    SETDIJ:  cpu time      0.5628: real time      0.0807
    EDDIAG:  cpu time      3.4691: real time      0.7778
  RMM-DIIS:  cpu time      6.6815: real time      2.9039
    ORTHCH:  cpu time      0.1188: real time      0.0597
       DOS:  cpu time      0.0048: real time      0.0024
    CHARGE:  cpu time      2.2372: real time      0.6830
    MIXING:  cpu time      0.7150: real time      0.1025
    --------------------------------------------
      LOOP:  cpu time     22.4392: real time      5.9254

 eigenvalue-minimisations  :  2960
 total energy-change (2. order) : 0.3170735E-01  (-0.5321792E-03)
 number of electron     384.0000008 magnetization 
 augmentation part       -6.5355612 magnetization 

 Broyden mixing:
  rms(total) = 0.82003E-01    rms(broyden)= 0.81983E-01
  rms(prec ) = 0.19525E+00
  weight for this iteration     100.00

 eigenvalues of (default mixing * dielectric matrix)
  average eigenvalue GAMMA=   1.7972
  7.0175  3.3509  2.5470  1.8281  0.2752  1.0530  1.0530  1.1272  1.1272  0.8854
  0.7234  0.5787

 Free energy of the ion-electron system (eV)
  ---------------------------------------------------
  alpha Z        PSCENC =       292.45958487
  Ewald energy   TEWEN  =     29164.43799919
  -Hartree energ DENC   =    -41697.29011371
  -exchange      EXHF   =         0.00000000
  -V(xc)+E(xc)   XCENC  =       275.41608913
  PAW double counting   =      4655.98766261    -3875.89145782
  entropy T*S    EENTRO =        -0.39672681
  eigenvalues    EBANDS =     -1497.61189206
  atomic energy  EATOM  =     12010.34264613
  Solvation  Ediel_sol  =         0.00000000
  ---------------------------------------------------
  free energy    TOTEN  =      -672.54620847 eV

  energy without entropy =     -672.14948166  energy(sigma->0) =     -672.34784506


--------------------------------------------------------------------------------------------------------




--------------------------------------- Iteration      1(  18)  ---------------------------------------


    POTLOK:  cpu time      8.6577: real time      1.3171
    SETDIJ:  cpu time      0.5634: real time      0.0807
    EDDIAG:  cpu time      3.5054: real time      0.7783
  RMM-DIIS:  cpu time      7.4420: real time      3.2865
    ORTHCH:  cpu time      0.1192: real time      0.0599
       DOS:  cpu time      0.0084: real time      0.0042
    CHARGE:  cpu time      2.2683: real time      0.6922
    MIXING:  cpu time      0.7638: real time      0.1099
    --------------------------------------------
      LOOP:  cpu time     23.3283: real time      6.3287

 eigenvalue-minimisations  :  3149
 total energy-change (2. order) :-0.1703321E-02  (-0.4868793E-03)
 number of electron     384.0000008 magnetization 
 augmentation part       -6.5009748 magnetization 

 Broyden mixing:
  rms(total) = 0.10496E-01    rms(broyden)= 0.10278E-01
  rms(prec ) = 0.13356E-01
  weight for this iteration     100.00

 eigenvalues of (default mixing * dielectric matrix)
  average eigenvalue GAMMA=   1.8966
  9.1435  3.2031  2.5337  1.9240  0.2752  1.0603  1.0603  1.2812  1.0030  1.0030
  0.7897  0.7897  0.5893

 Free energy of the ion-electron system (eV)
  ---------------------------------------------------
  alpha Z        PSCENC =       292.45958487
  Ewald energy   TEWEN  =     29164.43799919
  -Hartree energ DENC   =    -41703.96221832
  -exchange      EXHF   =         0.00000000
  -V(xc)+E(xc)   XCENC  =       275.46869440
  PAW double counting   =      4656.79549271    -3876.70337662
  entropy T*S    EENTRO =        -0.39523744
  eigenvalues    EBANDS =     -1490.99149671
  atomic energy  EATOM  =     12010.34264613
  Solvation  Ediel_sol  =         0.00000000
  ---------------------------------------------------
  free energy    TOTEN  =      -672.54791179 eV

[...]
  227          m_sumb_d                              0.205838                         10   4
  228        fordep                                3.320731                           10   3
  229          setdij_                               3.320282                         60   4
  230        setdij_                              11.061620                          200   3
  231        set_dd_magatom                        0.000045                           10   3
  232        set_dd_paw                            0.367231                           10   3
  233          m_sumb_d                              0.119922                         70   4
  234        strkin                                0.211985                           10   3
  235          m_sumb_d                              0.003983                         10   4
  236        strelo                                0.191602                           10   3
  237        strnlr                               44.569062                           10   3
  238          rspher_all                            3.446253                         90   4
  239          phaser                                2.372044                        180   4
  240          rpro_isp                             37.919518                        180   4
  241            fftwav_mpi                            2.113091                    43380   5
  242              fftwav                                2.052058                  43380   6
  243                fft3d                                 1.700290                43380   7
  244            rpromu_acc                           35.628523                    10980   5
  245          m_sumb_d                              0.482083                         90   4
  246        fft3d_mpi                             4.055351                          110   3
  247          fftbrc_mpi                            3.322190                        110   4
  248            fftbas_plan_mpi                       3.322005                      110   5
  249              dfftw_execute                         2.131054                    330   6
  250              map_forward                           0.537726                    100   6
  251                map_scatter                           0.314760                   50   7
  252              map_backward                          0.640503                    120   6
  253                map_gather                            0.423961                   60   7
  254        ggaall_grid                           2.326531                           10   3
  255        forhar                                2.419693                           20   3
  256        strehar                               0.102434                           10   3
  257        chggra                                0.236140                           10   3
  258          fft3d_mpi                             0.143863                         30   4
  259            fftbrc_mpi                            0.121474                       30   5
  260              fftbas_plan_mpi                       0.121453                     30   6
  261                map_forward                           0.000278                   40   7
  262                  map_scatter                           0.000079                 20   8
  263                map_backward                          0.000109                   20   7
  264                  map_gather                            0.000033                 10   8
  265          pothar                                0.011522                         10   4
  266        brmix                                 1.148690                           10   3
  267          brpre                                 0.012898                         10   4
  268          setg0                                 0.377296                         10   4
  269          broyd                                 0.270026                         10   4
  270            brget                                 0.036948                      525   5
  271            brsav                                 0.025666                      139   5
  272          m_bcast_z                             0.338160                         10   4
  273          m_bcast_d                             0.019307                         10   4
  274        m_bcast_d                             0.000284                           20   3
  275      potlok                               13.040534                             10   2
  276        fft3d_mpi                             4.458502                          130   3
  277          fftbrc_mpi                            3.618524                        130   4
  278            fftbas_plan_mpi                       3.618331                      130   5
  279              dfftw_execute                         2.325986                    390   6
  280              map_forward                           0.639225                    140   6
  281                map_scatter                           0.370666                   70   7
  282              map_backward                          0.636909                    120   6
  283                map_gather                            0.420699                   60   7
  284        ggaall_grid                           2.339619                           10   3
  285        pothar                                0.384930                           10   3
  286      potlok_metagga                        0.000008                             10   2
  287      set_dd_magatom                        0.000046                             10   2
  288      set_dd_paw                            0.312538                             10   2
  289        m_sumb_d                              0.065114                           70   3
  290      wavpre_noio                           7.125147                              9   2
  291        stufak                                2.939017                            9   3
  292      densta                                0.002250                              1   2
  293        m_sumb_d                              0.000129                           41   3
 
 Flat profile
 ============
 
             routine name                   CPU           calls
 ---------------------------------------------------------------
 i2                                     70.681090       19530
 hamiltmu                               69.615209       22295
 eddav                                  64.680519          14
 rpromu_acc                             64.128021       37287
 eddiag                                 62.757513          87
 potlok                                 62.689908         107
 newband                                39.113771       22497
 m_sumb_d                               35.652821        5532
 dfftw_execute                          29.336912        5115
 ggaall_grid                            27.129904         117
 i3                                     22.901371       19530
 set_charge                             20.730088          97
 setdij_                                20.368079         368
 fft3d                                  16.425333      437735
 total_time                             11.047846           1
 fft3d_mpi                              10.875990      142440
 augmentation_charge                     7.612422          97
 racc0mu_acc                             6.676215       22295
 phaser                                  6.247370         462
 raccmu_                                 6.005930       22295
 map_gather                              5.740689         906
 cnorma                                  5.374854      344853
 choleski                                5.140305         194
 rspher_all                              4.817259         131
 force_and_stress                        4.787350          10
 map_scatter                             4.420949         829
 wavpre_noio                             4.186130           9
 pothar                                  4.123964         117
 orth1                                   3.587986        9185
 setg0                                   3.529028         107
 eccp                                    3.413319      163633
 stufak                                  3.273232          10
 map_forward                             3.147149        1658
 map_backward                            2.915788        1812
 set_dd_paw                              2.894741         117
 elmin                                   2.791251          10
 w1_copy                                 2.488753      296313
 lapack                                  2.486269        2765
 w1_gemv                                 2.452797      302404
 forhar                                  2.419693          20
 m_bcast_z                               2.415970         219
 fftwav                                  2.219481      297030
 w1_dot                                  1.936337       39662
 w1_dscal                                1.738870      182170
 overl_mu                                1.690039       22295
 forloc                                  1.615820          10
 lincom                                  1.500823         396
 broyd                                   1.453302          97
 orthch                                  1.400244          97
 brmix                                   1.294628          97
 w1_daxpy                                1.244537      150578
 w1_gaxpy                                0.688097       85464
 proall                                  0.642942          10
 kinhamil                                0.587298      140705
 eddrmm                                  0.583781          87
 overl1                                  0.568222       75601
 fftext_mpi                              0.554375      140705
 vhamil                                  0.531131      140705
 eccp_nl                                 0.495573      229902
 depsum                                  0.480747          97
 apply_precond                           0.466246      139588
 init_hip                                0.464252           1
 fftwav_mpi                              0.453605      297030
 fftbas_plan_mpi                         0.451070        1735
 strnlr                                  0.349163          10
 setup_precond                           0.344119       48682
 zhegv                                   0.326769       35627
 soft_charge                             0.319644          97
 brget                                   0.311206        4418
 overl                                   0.281773       36040
 rpro_isp                                0.242524         260
 densta                                  0.208266         102
 strkin                                  0.208002          10
 brsav                                   0.201167        1220
 strelo                                  0.191602          10
 ggemm                                   0.168734        3633
 brpre                                   0.125065          97
 pw_charge                               0.119918       39541
 fornlr                                  0.109354          10
 strehar                                 0.102434          10
 chggra                                  0.080756          10
 rsp                                     0.068439          10
 inisym                                  0.053319           1
 m_bcast_d                               0.043984         158
 fft_gq                                  0.042519          97
 i1                                      0.040413       19530
 hamilt_local                            0.038638       41934
 w1_projall                              0.031431       21427
 hip_hipfft_makeplan                     0.020905           6
 truncate_high_frequency_w1              0.020563      147453
 brgrid                                  0.012030           1
 rcp                                     0.004711          10
 fftbrc_mpi                              0.002448        1735
 fewald                                  0.001913          10
 posmap                                  0.000750           2
 vectorpot                               0.000568          98
 set_dd_magatom                          0.000485         117
 fordep                                  0.000450          10
 hip_init_hipblas                        0.000199           1
 hip_init_rocsolver                      0.000180           1
 shift_bands_between_low_high            0.000120         174
 potlok_metagga                          0.000086         107
 crpa_reader                             0.000058           1
 rotate_active_occupied_orbital          0.000012          10
 hip_hipfft_makeplans                    0.000007           3
 redis_pw_over_bands                     0.000001          10
 ---------------------------------------------------------------
  summed up times    758.219937086105     
 
 Accumulative profile
 ====================
 
             routine name                   CPU           calls
 ---------------------------------------------------------------
 total_time                            758.219937           1
 elmin                                 616.632105          10
 eddrmm                                241.642535          87
 potlok                                139.473931         107
 force_and_stress                       98.143620          10
 eddav                                  95.609709          14
 hamiltmu                               88.937572       22295
 i2                                     80.693887       19530
 eddiag                                 68.183557          87
 set_charge                             66.516519          97
 rpromu_acc                             64.128021       37287
 fft3d_mpi                              62.160772      142440
 rpro_isp                               54.793934         260
 fftbrc_mpi                             46.015005        1735
 fftbas_plan_mpi                        46.012557        1735
 strnlr                                 44.569062          10
 newband                                43.203031       22497
 m_sumb_d                               35.652821        5532
 i3                                     35.033191       19530
 soft_charge                            33.718763          97
 dfftw_execute                          29.336912        5115
 ggaall_grid                            27.129904         117
 setdij_                                20.368079         368
 fft3d                                  16.425333      437735
 fornlr                                 14.802850          10
 raccmu_                                14.372184       22295
 fftwav_mpi                             13.828642      297030
 fftwav                                 13.375036      297030
 w1_projall                             12.734578       21427
 augmentation_charge                    11.204324          97
 orthch                                  9.745505          97
 brmix                                   9.367892          97
 map_backward                            8.656477        1812
 map_forward                             7.568097        1658
 wavpre_noio                             7.125147           9
 racc0mu_acc                             6.676215       22295
 kinhamil                                6.488368      140705
 phaser                                  6.247370         462
 fftext_mpi                              5.901070      140705
 cnorma                                  5.870427      344853
 map_gather                              5.740689         906
 proall                                  5.239923          10
 choleski                                5.140305         194
 rspher_all                              4.817259         131
 map_scatter                             4.420949         829
 pothar                                  4.123964         117
 set_dd_paw                              3.926855         117
 orth1                                   3.587986        9185
 setg0                                   3.529028         107
 eccp                                    3.413319      163633
 fordep                                  3.320731          10
 stufak                                  3.273232          10
 w1_gemv                                 3.021020      302404
 w1_copy                                 2.488753      296313
 lapack                                  2.486269        2765
 forhar                                  2.419693          20
 m_bcast_z                               2.415970         219
 hamilt_local                            2.107958       41934
 broyd                                   1.965676          97
 w1_dot                                  1.936337       39662
 w1_dscal                                1.738870      182170
 overl_mu                                1.690039       22295
 forloc                                  1.615820          10
 lincom                                  1.500823         396
 w1_daxpy                                1.244537      150578
 depsum                                  0.863343          97
 fft_gq                                  0.813001          97
 w1_gaxpy                                0.688097       85464
 i1                                      0.623325       19530
 overl1                                  0.568222       75601
 vhamil                                  0.531131      140705
 eccp_nl                                 0.495573      229902
 apply_precond                           0.466246      139588
 init_hip                                0.464252           1
 setup_precond                           0.344119       48682
 zhegv                                   0.326769       35627
 brget                                   0.311206        4418
 overl                                   0.281773       36040
 chggra                                  0.236140          10
 densta                                  0.221563         102
 strkin                                  0.211985          10
 brsav                                   0.201167        1220
 strelo                                  0.191602          10
 ggemm                                   0.168734        3633
 brpre                                   0.125065          97
 pw_charge                               0.119918       39541
 strehar                                 0.102434          10
 fewald                                  0.076919          10
 rsp                                     0.068439          10
 inisym                                  0.054069           1
 m_bcast_d                               0.043984         158
 hip_hipfft_makeplans                    0.020912           3
 hip_hipfft_makeplan                     0.020905           6
 truncate_high_frequency_w1              0.020563      147453
 brgrid                                  0.012030           1
 rcp                                     0.004711          10
 posmap                                  0.000750           2
 vectorpot                               0.000568          98
 set_dd_magatom                          0.000485         117
 hip_init_hipblas                        0.000199           1
 hip_init_rocsolver                      0.000180           1
 shift_bands_between_low_high            0.000120         174
 potlok_metagga                          0.000086         107
 crpa_reader                             0.000058           1
 rotate_active_occupied_orbital          0.000012          10
 redis_pw_over_bands                     0.000001          10
 ---------------------------------------------------------------
 
Profiling took   0.776442  0.467651  0.002883  0.002732 seconds
Profiling took   0.573364 seconds
