<?xml version="1.0" encoding="ISO-8859-1"?>
<modeling>
 <generator>
  <i name="program" type="string">vasp </i>
  <i name="version" type="string">6.3.2  </i>
  <i name="subversion" type="string">27Jun22 (build Mar 15 2023 15:45:48) complex                          parallel </i>
  <i name="platform" type="string">LinuxIFC </i>
  <i name="date" type="string">2024 07 17 </i>
  <i name="time" type="string">02:13:35 </i>
 </generator>
 <incar>
  <i type="string" name="SYSTEM">ni3al</i>
  <i type="int" name="ISTART">     0</i>
  <i type="string" name="PREC">Accurate</i>
  <i type="string" name="ALGO">Fast</i>
  <i name="AMIN">      0.01000000</i>
  <i type="int" name="ICHARG">     2</i>
  <i type="int" name="NELM">   150</i>
  <i type="int" name="IBRION">     2</i>
  <i name="EDIFF">      0.00000100</i>
  <i name="EDIFFG">     -0.01000000</i>
  <i type="int" name="NSW">   300</i>
  <i type="int" name="ISIF">     2</i>
  <i name="ENCUT">    530.00000000</i>
  <i type="string" name="LREAL">Auto</i>
  <i type="int" name="ISMEAR">     0</i>
  <i name="SIGMA">      0.10000000</i>
  <i type="int" name="LMAXMIX">     4</i>
  <i type="logical" name="LWAVE"> F  </i>
  <i type="logical" name="LCHARG"> F  </i>
 </incar>
 <primitive_cell>
  <structure name="primitive_cell" >
   <crystal>
    <varray name="basis" >
     <v>      -3.09476019       0.00000000       0.00000000 </v>
     <v>       1.54738009      -2.68013550       0.00000000 </v>
     <v>       0.00000000       0.00000000      18.22724100 </v>
    </varray>
    <i name="volume">    151.18360211 </i>
    <varray name="rec_basis" >
     <v>      -0.32312681      -0.18655773       0.00000000 </v>
     <v>       0.00000000      -0.37311546       0.00000000 </v>
     <v>       0.00000000       0.00000000       0.05486294 </v>
    </varray>
   </crystal>
   <varray name="positions" >
    <v>       0.00000000       0.00000000       0.31213000 </v>
    <v>       0.33333400       0.66666800       0.45137100 </v>
    <v>       0.66666800       0.33333600       0.03482200 </v>
    <v>       0.33333400       0.66666800       0.17351800 </v>
    <v>       0.00000000       0.00000000       0.00000000 </v>
    <v>       0.00000000       0.00000000       0.41654900 </v>
    <v>       0.66666800       0.33333600       0.13894900 </v>
    <v>       0.33333400       0.66666800       0.27764900 </v>
   </varray>
  </structure>
  <varray name="primitive_index" >
   <v type="int" >        1 </v>
   <v type="int" >       27 </v>
   <v type="int" >        5 </v>
   <v type="int" >       31 </v>
   <v type="int" >       49 </v>
   <v type="int" >       51 </v>
   <v type="int" >       53 </v>
   <v type="int" >       79 </v>
  </varray>
 </primitive_cell>
 <kpoints>
  <generation param="Gamma">
   <v type="int" name="divisions">       4        3        1 </v>
   <v name="usershift">      0.00000000       0.00000000       0.00000000 </v>
   <v name="genvec1">      0.25000000       0.00000000       0.00000000 </v>
   <v name="genvec2">      0.00000000       0.33333333       0.00000000 </v>
   <v name="genvec3">      0.00000000       0.00000000       1.00000000 </v>
   <v name="shift">      0.00000000       0.00000000       0.00000000 </v>
  </generation>
  <varray name="kpointlist" >
   <v>       0.00000000       0.00000000       0.00000000 </v>
   <v>       0.25000000       0.00000000       0.00000000 </v>
   <v>       0.50000000       0.00000000       0.00000000 </v>
   <v>       0.00000000       0.33333333       0.00000000 </v>
   <v>       0.25000000       0.33333333       0.00000000 </v>
   <v>       0.50000000       0.33333333       0.00000000 </v>
  </varray>
  <varray name="weights" >
   <v>       0.08333333 </v>
   <v>       0.16666667 </v>
   <v>       0.08333333 </v>
   <v>       0.16666667 </v>
   <v>       0.33333333 </v>
   <v>       0.16666667 </v>
  </varray>
 </kpoints>
 <parameters>
  <separator name="general" >
   <i type="string" name="SYSTEM">ni3al</i>
   <i type="logical" name="LCOMPAT"> F  </i>
  </separator>
  <separator name="electronic" >
   <i type="string" name="PREC">accura</i>
   <i name="ENMAX">    530.00000000</i>
   <i name="ENAUG">    644.87300000</i>
   <i name="EDIFF">      0.00000100</i>
   <i type="int" name="IALGO">    68</i>
   <i type="int" name="IWAVPR">    11</i>
   <i type="int" name="NBANDS">   241</i>
   <i type="int" name="NBANDSLOW">    -1</i>
   <i type="int" name="NBANDSHIGH">    -1</i>
   <i name="NELECT">    384.00000000</i>
   <i type="int" name="TURBO">     0</i>
   <i type="int" name="IRESTART">     0</i>
   <i type="int" name="NREBOOT">     0</i>
   <i type="int" name="NMIN">     0</i>
   <i name="EREF">      0.00000000</i>
   <separator name="electronic smearing" >
    <i type="int" name="ISMEAR">     0</i>
    <i name="SIGMA">      0.10000000</i>
    <i name="KSPACING">      0.50000000</i>
    <i type="logical" name="KGAMMA"> T  </i>
    <i type="logical" name="KBLOWUP"> T  </i>
   </separator>
   <separator name="electronic projectors" >
    <i type="logical" name="LREAL"> T  </i>
    <v name="ROPT">     -0.00025000     -0.00025000</v>
    <i type="int" name="LMAXPAW">  -100</i>
    <i type="int" name="LMAXMIX">     4</i>
    <i type="logical" name="NLSPLINE"> F  </i>
   </separator>
   <separator name="electronic startup" >
    <i type="int" name="ISTART">     0</i>
    <i type="int" name="ICHARG">     2</i>
    <i type="int" name="INIWAV">     1</i>
   </separator>
   <separator name="electronic spin" >
    <i type="int" name="ISPIN">     1</i>
    <i type="logical" name="LNONCOLLINEAR"> F  </i>
    <v name="MAGMOM">      1.00000000      1.00000000      1.00000000      1.00000000      1.00000000      1.00000000      1.00000000      1.00000000      1.00000000      1.00000000      1.00000000      1.00000000      1.00000000      1.00000000      1.00000000      1.00000000      1.00000000      1.00000000      1.00000000      1.00000000
      1.00000000      1.00000000      1.00000000      1.00000000      1.00000000      1.00000000      1.00000000      1.00000000      1.00000000      1.00000000      1.00000000      1.00000000      1.00000000      1.00000000      1.00000000      1.00000000      1.00000000      1.00000000      1.00000000      1.00000000
      1.00000000      1.00000000      1.00000000      1.00000000      1.00000000      1.00000000      1.00000000      1.00000000      1.00000000      1.00000000      1.00000000      1.00000000      1.00000000      1.00000000      1.00000000      1.00000000      1.00000000      1.00000000      1.00000000      1.00000000
      1.00000000      1.00000000      1.00000000      1.00000000      1.00000000      1.00000000      1.00000000      1.00000000      1.00000000      1.00000000      1.00000000      1.00000000      1.00000000      1.00000000      1.00000000      1.00000000      1.00000000      1.00000000      1.00000000      1.00000000
      1.00000000      1.00000000      1.00000000      1.00000000      1.00000000      1.00000000      1.00000000      1.00000000      1.00000000      1.00000000      1.00000000      1.00000000      1.00000000      1.00000000      1.00000000      1.00000000</v>
    <i name="NUPDOWN">     -1.00000000</i>
    <i type="logical" name="LSORBIT"> F  </i>
    <v name="SAXIS">      0.00000000      0.00000000      1.00000000</v>
    <i type="logical" name="LSPIRAL"> F  </i>
    <v name="QSPIRAL">      0.00000000      0.00000000      0.00000000</v>
    <i type="logical" name="LZEROZ"> F  </i>
   </separator>
   <separator name="electronic exchange-correlation" >
    <i type="logical" name="LASPH"> F  </i>
    <i type="logical" name="LMETAGGA"> F  </i>
   </separator>
   <separator name="electronic convergence" >
    <i type="int" name="NELM">   150</i>
    <i type="int" name="NELMDL">    -5</i>
    <i type="int" name="NELMIN">     2</i>
    <i name="ENINI">    530.00000000</i>
    <separator name="electronic convergence detail" >
     <i type="logical" name="LDIAG"> T  </i>
     <i type="logical" name="LSUBROT"> F  </i>
     <i name="WEIMIN">      0.00100000</i>
     <i name="EBREAK">      0.00000000</i>
     <i name="DEPER">      0.30000000</i>
     <i type="int" name="NRMM">     4</i>
     <i name="TIME">      0.40000000</i>
    </separator>
   </separator>
   <separator name="electronic mixer" >
    <i name="AMIX">      0.40000000</i>
    <i name="BMIX">      1.00000000</i>
    <i name="AMIN">      0.01000000</i>
    <i name="AMIX_MAG">      1.60000000</i>
    <i name="BMIX_MAG">      1.00000000</i>
    <separator name="electronic mixer details" >
     <i type="int" name="IMIX">     4</i>
     <i type="logical" name="MIXFIRST"> F  </i>
     <i type="int" name="MAXMIX">   -45</i>
     <i name="WC">    100.00000000</i>
     <i type="int" name="INIMIX">     1</i>
     <i type="int" name="MIXPRE">     1</i>
     <i type="int" name="MREMOVE">     5</i>
    </separator>
   </separator>
   <separator name="electronic dipolcorrection" >
    <i type="logical" name="LDIPOL"> F  </i>
    <i type="logical" name="LMONO"> F  </i>
    <i type="int" name="IDIPOL">     0</i>
    <i name="EPSILON">      1.00000000</i>
    <v name="DIPOL">   -100.00000000   -100.00000000   -100.00000000</v>
    <i name="EFIELD">      0.00000000</i>
   </separator>
  </separator>
  <separator name="grids" >
   <i type="int" name="NGX">    70</i>
   <i type="int" name="NGY">    80</i>
   <i type="int" name="NGZ">   140</i>
   <i type="int" name="NGXF">   140</i>
   <i type="int" name="NGYF">   160</i>
   <i type="int" name="NGZF">   280</i>
   <i type="logical" name="ADDGRID"> F  </i>
  </separator>
  <separator name="ionic" >
   <i type="int" name="NSW">   300</i>
   <i type="int" name="IBRION">     2</i>
   <i type="int" name="MDALGO">     0</i>
   <i type="int" name="ISIF">     2</i>
   <i name="PSTRESS">      0.00000000</i>
   <i name="EDIFFG">     -0.01000000</i>
   <i type="int" name="NFREE">     1</i>
   <i name="POTIM">      0.50000000</i>
   <i name="SMASS">     -3.00000000</i>
   <i name="SCALEE">      1.00000000</i>
  </separator>
  <separator name="ionic md" >
   <i name="TEBEG">      0.00010000</i>
   <i name="TEEND">      0.00010000</i>
   <i type="int" name="NBLOCK">     1</i>
   <i type="int" name="KBLOCK">   300</i>
   <i type="int" name="NPACO">   256</i>
   <i name="APACO">     10.00000000</i>
  </separator>
  <separator name="symmetry" >
   <i type="int" name="ISYM">     2</i>
   <i name="SYMPREC">      0.00001000</i>
  </separator>
  <separator name="dos" >
   <i type="int" name="LORBIT">     0</i>
   <v name="RWIGS">     -1.00000000     -1.00000000</v>
   <i type="int" name="NEDOS">   301</i>
   <i name="EMIN">     10.00000000</i>
   <i name="EMAX">    -10.00000000</i>
   <i name="EFERMI">      0.00000000</i>
  </separator>
  <separator name="writing" >
   <i type="int" name="NWRITE">     2</i>
   <i type="logical" name="LWAVE"> F  </i>
   <i type="logical" name="LDOWNSAMPLE"> F  </i>
   <i type="logical" name="LCHARG"> F  </i>
   <i type="logical" name="LPARD"> F  </i>
   <i type="logical" name="LVTOT"> F  </i>
   <i type="logical" name="LVHAR"> F  </i>
   <i type="logical" name="LELF"> F  </i>
   <i type="logical" name="LOPTICS"> F  </i>
   <v name="STM">      0.00000000      0.00000000      0.00000000      0.00000000      0.00000000      0.00000000      0.00000000</v>
  </separator>
  <separator name="performance" >
   <i type="int" name="NPAR">     1</i>
   <i type="int" name="NSIM">     4</i>
   <i type="int" name="NBLK">    -1</i>
   <i type="logical" name="LPLANE"> T  </i>
   <i type="logical" name="LSCALAPACK"> T  </i>
   <i type="logical" name="LSCAAWARE"> F  </i>
   <i type="logical" name="LSCALU"> F  </i>
   <i type="logical" name="LASYNC"> F  </i>
   <i type="logical" name="LORBITALREAL"> F  </i>
  </separator>
  <separator name="miscellaneous" >
   <i type="int" name="IDIOT">     3</i>
   <i type="int" name="PHON_NSTRUCT">    -1</i>
   <i type="logical" name="LMUSIC"> F  </i>
   <v name="POMASS">     12.01100000     28.08500000</v>
   <v name="DARWINR">      0.00000000      0.00000000</v>
   <v name="DARWINV">      1.00000000      1.00000000</v>
   <i type="logical" name="LCORR"> T  </i>
  </separator>
  <i type="logical" name="GGA_COMPAT"> T  </i>
  <i type="logical" name="LBERRY"> F  </i>
  <i type="int" name="ICORELEVEL">     0</i>
  <i type="logical" name="LDAU"> F  </i>
  <i type="int" name="I_CONSTRAINED_M">     0</i>
  <separator name="electronic exchange-correlation" >
   <i type="string" name="GGA">--</i>
   <i type="int" name="VOSKOWN">     0</i>
   <i type="logical" name="LHFCALC"> F  </i>
   <i type="string" name="PRECFOCK"></i>
   <i type="logical" name="LSYMGRAD"> F  </i>
   <i type="logical" name="LHFONE"> F  </i>
   <i type="logical" name="LRHFCALC"> F  </i>
   <i type="logical" name="LTHOMAS"> F  </i>
   <i type="logical" name="LMODELHF"> F  </i>
   <i type="logical" name="LFOCKACE"> F  </i>
   <i name="ENCUT4O">     -1.00000000</i>
   <i type="int" name="EXXOEP">     0</i>
   <i type="int" name="FOURORBIT">     0</i>
   <i name="AEXX">      0.00000000</i>
   <i name="HFALPHA">      0.00000000</i>
   <i name="MCALPHA">      0.00000000</i>
   <i name="ALDAX">      1.00000000</i>
   <i name="AGGAX">      1.00000000</i>
   <i name="ALDAC">      1.00000000</i>
   <i name="AGGAC">      1.00000000</i>
   <i type="int" name="NKREDX">     1</i>
   <i type="int" name="NKREDY">     1</i>
   <i type="int" name="NKREDZ">     1</i>
   <i type="logical" name="SHIFTRED"> F  </i>
   <i type="logical" name="ODDONLY"> F  </i>
   <i type="logical" name="EVENONLY"> F  </i>
   <i type="int" name="LMAXFOCK">     0</i>
   <i type="int" name="NMAXFOCKAE">     0</i>
   <i type="logical" name="LFOCKAEDFT"> F  </i>
   <i name="HFSCREEN">      0.00000000</i>
   <i name="HFSCREENC">      0.00000000</i>
   <i type="int" name="NBANDSGWLOW">     0</i>
  </separator>
  <separator name="vdW DFT" >
   <i type="logical" name="LUSE_VDW"> F  </i>
   <i name="Zab_VDW">     -0.84910000</i>
   <i name="PARAM1">      0.12340000</i>
   <i name="PARAM2">      1.00000000</i>
   <i name="PARAM3">      0.00000000</i>
  </separator>
  <separator name="model GW" >
   <i type="int" name="MODEL_GW">     0</i>
   <i name="MODEL_EPS0">     11.33874748</i>
   <i name="MODEL_ALPHA">      1.00000000</i>
  </separator>
  <separator name="linear response parameters" >
   <i type="logical" name="LEPSILON"> F  </i>
   <i type="logical" name="LRPA"> F  </i>
   <i type="logical" name="LNABLA"> F  </i>
   <i type="logical" name="LVEL"> F  </i>
   <i name="CSHIFT">      0.10000000</i>
   <i name="OMEGAMAX">     -1.00000000</i>
   <i name="DEG_THRESHOLD">      0.00200000</i>
   <i name="RTIME">     -0.10000000</i>
   <i name="WPLASMAI">      0.00000000</i>
   <v name="DFIELD">      0.00000000      0.00000000      0.00000000</v>
   <v name="WPLASMA">      0.00000000      0.00000000      0.00000000      0.00000000      0.00000000      0.00000000      0.00000000      0.00000000      0.00000000</v>
  </separator>
  <separator name="orbital magnetization" >
   <i type="logical" name="NUCIND"> F  </i>
   <v name="MAGPOS">      0.00000000      0.00000000      0.00000000</v>
   <i type="logical" name="LNICSALL"> T  </i>
   <i type="logical" name="ORBITALMAG"> F  </i>
   <i type="logical" name="LMAGBLOCH"> F  </i>
   <i type="logical" name="LCHIMAG"> F  </i>
   <i type="logical" name="LGAUGE"> T  </i>
   <i type="int" name="MAGATOM">     0</i>
   <v name="MAGDIPOL">      0.00000000      0.00000000      0.00000000</v>
   <v name="AVECCONST">      0.00000000      0.00000000      0.00000000</v>
  </separator>
  <separator name="response functions" >
   <i type="logical" name="LFINITE_TEMPERATURE"> F  </i>
   <i type="logical" name="LADDER"> F  </i>
   <i type="logical" name="LRPAFORCE"> F  </i>
   <i type="logical" name="LFXC"> F  </i>
   <i type="logical" name="LHARTREE"> T  </i>
   <i type="int" name="IBSE">     0</i>
   <v type="int" name="KPOINT">    -1     0     0     0</v>
   <i type="logical" name="LTCTC"> F  </i>
   <i type="logical" name="LTCTE"> F  </i>
   <i type="logical" name="LTETE"> F  </i>
   <i type="logical" name="LTRIPLET"> F  </i>
   <i type="logical" name="LFXCEPS"> F  </i>
   <i type="logical" name="LFXHEG"> F  </i>
   <i type="int" name="NATURALO">     2</i>
   <i type="logical" name="LHOLEGF"> F  </i>
   <i type="logical" name="L2ORDER"> F  </i>
   <i type="logical" name="LDMP1"> F  </i>
   <i type="logical" name="LMP2LT"> F  </i>
   <i type="logical" name="LSMP2LT"> F  </i>
   <i type="logical" name="LGWLF"> F  </i>
   <i name="ENCUTGW">     -2.00000000</i>
   <i name="ENCUTGWSOFT">     -2.00000000</i>
   <i name="ENCUTLF">     -1.00000000</i>
   <i type="logical" name="LESF_SPLINES"> F  </i>
   <i type="int" name="LMAXMP2">    -1</i>
   <i name="SCISSOR">      0.00000000</i>
   <i type="int" name="NOMEGA">     0</i>
   <i type="int" name="NOMEGAR">     0</i>
   <i type="int" name="NBANDSGW">    -1</i>
   <i type="int" name="NBANDSO">    -1</i>
   <i type="int" name="NBANDSV">    -1</i>
   <i type="int" name="NELMGW">     1</i>
   <i type="int" name="NELMHF">     1</i>
   <i type="int" name="DIM">     3</i>
   <i type="int" name="IESPILON">     4</i>
   <i type="int" name="ANTIRES">     0</i>
   <i name="OMEGAMAX">    -30.00000000</i>
   <i name="OMEGAMIN">    -30.00000000</i>
   <i name="OMEGATL">   -200.00000000</i>
   <i type="int" name="OMEGAGRID">     0</i>
   <i name="CSHIFT">     -0.10000000</i>
   <i type="logical" name="LSELFENERGY"> F  </i>
   <i type="logical" name="LSPECTRAL"> F  </i>
   <i type="logical" name="LSPECTRALGW"> F  </i>
   <i type="logical" name="LSINGLES"> F  </i>
   <i type="logical" name="LFERMIGW"> F  </i>
   <i type="logical" name="ODDONLYGW"> F  </i>
   <i type="logical" name="EVENONLYGW"> F  </i>
   <i type="int" name="NKREDLFX">     1</i>
   <i type="int" name="NKREDLFY">     1</i>
   <i type="int" name="NKREDLFZ">     1</i>
   <i type="int" name="MAXMEM">  2800</i>
   <i type="int" name="TELESCOPE">     0</i>
   <i type="int" name="NTAUPAR">    -1</i>
   <i type="int" name="NOMEGAPAR">    -1</i>
   <i name="DAMP_NEWTON">      0.80000001</i>
   <i name="LAMBDA">      1.00000000</i>
  </separator>
  <separator name="External order field" >
   <i name="OFIELD_KAPPA">      0.00000000</i>
   <v name="OFIELD_K">      0.00000000      0.00000000      0.00000000</v>
   <i name="OFIELD_Q6_NEAR">      0.00000000</i>
   <i name="OFIELD_Q6_FAR">      0.00000000</i>
   <i name="OFIELD_A">      0.00000000</i>
  </separator>
  <separator name="optional k-points parameters" >
   <i type="int" name="KPOINTS_OPT_MODE">     1</i>
   <i type="logical" name="LKPOINTS_OPT"> F  </i>
  </separator>
  <separator name="solvation model" >
   <i type="logical" name="LSOL"> F  </i>
  </separator>
 </parameters>
 <atominfo>
  <atoms>      96 </atoms>
  <types>       2 </types>
  <array name="atoms" >
   <dimension dim="1">ion</dimension>
   <field type="string">element</field>
   <field type="int">atomtype</field>
   <set>
    <rc><c>C </c><c>   1</c></rc>
    <rc><c>C </c><c>   1</c></rc>
    <rc><c>C </c><c>   1</c></rc>
    <rc><c>C </c><c>   1</c></rc>
    <rc><c>C </c><c>   1</c></rc>
    <rc><c>C </c><c>   1</c></rc>
    <rc><c>C </c><c>   1</c></rc>
    <rc><c>C </c><c>   1</c></rc>
    <rc><c>C </c><c>   1</c></rc>
    <rc><c>C </c><c>   1</c></rc>
    <rc><c>C </c><c>   1</c></rc>
    <rc><c>C </c><c>   1</c></rc>
    <rc><c>C </c><c>   1</c></rc>
    <rc><c>C </c><c>   1</c></rc>
    <rc><c>C </c><c>   1</c></rc>
    <rc><c>C </c><c>   1</c></rc>
    <rc><c>C </c><c>   1</c></rc>
    <rc><c>C </c><c>   1</c></rc>
    <rc><c>C </c><c>   1</c></rc>
    <rc><c>C </c><c>   1</c></rc>
    <rc><c>C </c><c>   1</c></rc>
    <rc><c>C </c><c>   1</c></rc>
    <rc><c>C </c><c>   1</c></rc>
    <rc><c>C </c><c>   1</c></rc>
    <rc><c>C </c><c>   1</c></rc>
    <rc><c>C </c><c>   1</c></rc>
    <rc><c>C </c><c>   1</c></rc>
    <rc><c>C </c><c>   1</c></rc>
    <rc><c>C </c><c>   1</c></rc>
    <rc><c>C </c><c>   1</c></rc>
    <rc><c>C </c><c>   1</c></rc>
    <rc><c>C </c><c>   1</c></rc>
    <rc><c>C </c><c>   1</c></rc>
    <rc><c>C </c><c>   1</c></rc>
    <rc><c>C </c><c>   1</c></rc>
    <rc><c>C </c><c>   1</c></rc>
    <rc><c>C </c><c>   1</c></rc>
    <rc><c>C </c><c>   1</c></rc>
    <rc><c>C </c><c>   1</c></rc>
    <rc><c>C </c><c>   1</c></rc>
    <rc><c>C </c><c>   1</c></rc>
    <rc><c>C </c><c>   1</c></rc>
    <rc><c>C </c><c>   1</c></rc>
    <rc><c>C </c><c>   1</c></rc>
    <rc><c>C </c><c>   1</c></rc>
    <rc><c>C </c><c>   1</c></rc>
    <rc><c>C </c><c>   1</c></rc>
    <rc><c>C </c><c>   1</c></rc>
    <rc><c>Si</c><c>   2</c></rc>
    <rc><c>Si</c><c>   2</c></rc>
    <rc><c>Si</c><c>   2</c></rc>
    <rc><c>Si</c><c>   2</c></rc>
    <rc><c>Si</c><c>   2</c></rc>
    <rc><c>Si</c><c>   2</c></rc>
    <rc><c>Si</c><c>   2</c></rc>
    <rc><c>Si</c><c>   2</c></rc>
    <rc><c>Si</c><c>   2</c></rc>
    <rc><c>Si</c><c>   2</c></rc>
    <rc><c>Si</c><c>   2</c></rc>
    <rc><c>Si</c><c>   2</c></rc>
    <rc><c>Si</c><c>   2</c></rc>
    <rc><c>Si</c><c>   2</c></rc>
    <rc><c>Si</c><c>   2</c></rc>
    <rc><c>Si</c><c>   2</c></rc>
    <rc><c>Si</c><c>   2</c></rc>
    <rc><c>Si</c><c>   2</c></rc>
    <rc><c>Si</c><c>   2</c></rc>
    <rc><c>Si</c><c>   2</c></rc>
    <rc><c>Si</c><c>   2</c></rc>
    <rc><c>Si</c><c>   2</c></rc>
    <rc><c>Si</c><c>   2</c></rc>
    <rc><c>Si</c><c>   2</c></rc>
    <rc><c>Si</c><c>   2</c></rc>
    <rc><c>Si</c><c>   2</c></rc>
    <rc><c>Si</c><c>   2</c></rc>
    <rc><c>Si</c><c>   2</c></rc>
    <rc><c>Si</c><c>   2</c></rc>
    <rc><c>Si</c><c>   2</c></rc>
    <rc><c>Si</c><c>   2</c></rc>
    <rc><c>Si</c><c>   2</c></rc>
    <rc><c>Si</c><c>   2</c></rc>
    <rc><c>Si</c><c>   2</c></rc>
    <rc><c>Si</c><c>   2</c></rc>
    <rc><c>Si</c><c>   2</c></rc>
    <rc><c>Si</c><c>   2</c></rc>
    <rc><c>Si</c><c>   2</c></rc>
    <rc><c>Si</c><c>   2</c></rc>
    <rc><c>Si</c><c>   2</c></rc>
    <rc><c>Si</c><c>   2</c></rc>
    <rc><c>Si</c><c>   2</c></rc>
    <rc><c>Si</c><c>   2</c></rc>
    <rc><c>Si</c><c>   2</c></rc>
    <rc><c>Si</c><c>   2</c></rc>
    <rc><c>Si</c><c>   2</c></rc>
    <rc><c>Si</c><c>   2</c></rc>
    <rc><c>Si</c><c>   2</c></rc>
   </set>
  </array>
  <array name="atomtypes" >
   <dimension dim="1">type</dimension>
   <field type="int">atomspertype</field>
   <field type="string">element</field>
   <field>mass</field>
   <field>valence</field>
   <field type="string">pseudopotential</field>
   <set>
    <rc><c>  48</c><c>C </c><c>     12.01100000</c><c>      4.00000000</c><c> PAW_PBE C 08Apr2002                    </c></rc>
    <rc><c>  48</c><c>Si</c><c>     28.08500000</c><c>      4.00000000</c><c> PAW_PBE Si 05Jan2001                   </c></rc>
   </set>
  </array>
 </atominfo>
 <structure name="initialpos" >
  <crystal>
   <varray name="basis" >
    <v>       9.28426200       0.00000000       0.00000000 </v>
    <v>       0.00000000      10.72054200       0.00000000 </v>
    <v>       0.00000000       0.00000000      18.22724100 </v>
   </varray>
   <i name="volume">   1814.19959687 </i>
   <varray name="rec_basis" >
    <v>       0.10770915       0.00000000       0.00000000 </v>
    <v>       0.00000000       0.09327887       0.00000000 </v>
    <v>       0.00000000       0.00000000       0.05486294 </v>
   </varray>
  </crystal>
  <varray name="positions" >
   <v>       0.00000000       0.00000000       0.31213000 </v>
   <v>       0.16666700       0.25000000       0.31213000 </v>
   <v>       0.00000000       0.33333300       0.45137100 </v>
   <v>       0.16666700       0.08333300       0.45137100 </v>
   <v>       0.00000000       0.16666600       0.03482200 </v>
   <v>       0.16666700       0.41666600       0.03482200 </v>
   <v>       0.00000000       0.33333300       0.17351800 </v>
   <v>       0.16666700       0.08333300       0.17351800 </v>
   <v>       0.33333300       0.00000000       0.31213000 </v>
   <v>       0.50000000       0.25000000       0.31213000 </v>
   <v>       0.33333300       0.33333400       0.45137100 </v>
   <v>       0.50000000       0.08333300       0.45137100 </v>
   <v>       0.33333300       0.16666600       0.03482200 </v>
   <v>       0.50000000       0.41666600       0.03482200 </v>
   <v>       0.33333300       0.33333400       0.17351800 </v>
   <v>       0.50000000       0.08333300       0.17351800 </v>
   <v>       0.66666700       0.00000000       0.31213000 </v>
   <v>       0.83333300       0.25000000       0.31213000 </v>
   <v>       0.66666700       0.33333300       0.45137100 </v>
   <v>       0.83333300       0.08333300       0.45137100 </v>
   <v>       0.66666700       0.16666600       0.03482200 </v>
   <v>       0.83333300       0.41666600       0.03482200 </v>
   <v>       0.66666700       0.33333300       0.17351800 </v>
   <v>       0.83333300       0.08333300       0.17351800 </v>
   <v>       0.00000000       0.50000000       0.31213000 </v>
   <v>       0.16666700       0.75000000       0.31213000 </v>
   <v>       0.00000000       0.83333300       0.45137100 </v>
   <v>       0.16666700       0.58333300       0.45137100 </v>
   <v>       0.00000000       0.66666600       0.03482200 </v>
   <v>       0.16666700       0.91666600       0.03482200 </v>
   <v>       0.00000000       0.83333300       0.17351800 </v>
   <v>       0.16666700       0.58333300       0.17351800 </v>
   <v>       0.33333300       0.50000000       0.31213000 </v>
   <v>       0.50000000       0.75000000       0.31213000 </v>
   <v>       0.33333300       0.83333300       0.45137100 </v>
   <v>       0.50000000       0.58333300       0.45137100 </v>
   <v>       0.33333300       0.66666600       0.03482200 </v>
   <v>       0.50000000       0.91666600       0.03482200 </v>
   <v>       0.33333300       0.83333300       0.17351800 </v>
   <v>       0.50000000       0.58333300       0.17351800 </v>
   <v>       0.66666700       0.50000000       0.31213000 </v>
   <v>       0.83333300       0.75000000       0.31213000 </v>
   <v>       0.66666700       0.83333300       0.45137100 </v>
   <v>       0.83333300       0.58333300       0.45137100 </v>
   <v>       0.66666700       0.66666600       0.03482200 </v>
   <v>       0.83333300       0.91666600       0.03482200 </v>
   <v>       0.66666700       0.83333300       0.17351800 </v>
   <v>       0.83333300       0.58333300       0.17351800 </v>
   <v>       0.00000000       0.00000000       0.00000000 </v>
   <v>       0.16666700       0.25000000       0.00000000 </v>
   <v>       0.00000000       0.00000000       0.41654900 </v>
   <v>       0.16666700       0.25000000       0.41654900 </v>
   <v>       0.00000000       0.16666600       0.13894900 </v>
   <v>       0.16666700       0.41666600       0.13894900 </v>
   <v>       0.00000000       0.33333300       0.27764900 </v>
   <v>       0.16666700       0.08333300       0.27764900 </v>
   <v>       0.33333300       0.00000000       0.00000000 </v>
   <v>       0.50000000       0.25000000       0.00000000 </v>
   <v>       0.33333300       0.00000000       0.41654900 </v>
   <v>       0.50000000       0.25000000       0.41654900 </v>
   <v>       0.33333300       0.16666600       0.13894900 </v>
   <v>       0.50000000       0.41666600       0.13894900 </v>
   <v>       0.33333300       0.33333400       0.27764900 </v>
   <v>       0.50000000       0.08333300       0.27764900 </v>
   <v>       0.66666700       0.00000000       0.00000000 </v>
   <v>       0.83333300       0.25000000       0.00000000 </v>
   <v>       0.66666700       0.00000000       0.41654900 </v>
   <v>       0.83333300       0.25000000       0.41654900 </v>
   <v>       0.66666700       0.16666600       0.13894900 </v>
   <v>       0.83333300       0.41666600       0.13894900 </v>
   <v>       0.66666700       0.33333300       0.27764900 </v>
   <v>       0.83333300       0.08333300       0.27764900 </v>
   <v>       0.00000000       0.50000000       0.00000000 </v>
   <v>       0.16666700       0.75000000       0.00000000 </v>
   <v>       0.00000000       0.50000000       0.41654900 </v>
   <v>       0.16666700       0.75000000       0.41654900 </v>
   <v>       0.00000000       0.66666600       0.13894900 </v>
   <v>       0.16666700       0.91666600       0.13894900 </v>
   <v>       0.00000000       0.83333300       0.27764900 </v>
   <v>       0.16666700       0.58333300       0.27764900 </v>
   <v>       0.33333300       0.50000000       0.00000000 </v>
   <v>       0.50000000       0.75000000       0.00000000 </v>
   <v>       0.33333300       0.50000000       0.41654900 </v>
   <v>       0.50000000       0.75000000       0.41654900 </v>
   <v>       0.33333300       0.66666600       0.13894900 </v>
   <v>       0.50000000       0.91666600       0.13894900 </v>
   <v>       0.33333300       0.83333300       0.27764900 </v>
   <v>       0.50000000       0.58333300       0.27764900 </v>
   <v>       0.66666700       0.50000000       0.00000000 </v>
   <v>       0.83333300       0.75000000       0.00000000 </v>
   <v>       0.66666700       0.50000000       0.41654900 </v>
   <v>       0.83333300       0.75000000       0.41654900 </v>
   <v>       0.66666700       0.66666600       0.13894900 </v>
   <v>       0.83333300       0.91666600       0.13894900 </v>
   <v>       0.66666700       0.83333300       0.27764900 </v>
   <v>       0.83333300       0.58333300       0.27764900 </v>
  </varray>
  <varray name="selective"  type="logical" >
   <v type="logical" >  F  F  F </v>
   <v type="logical" >  F  F  F </v>
   <v type="logical" >  T  T  T </v>
   <v type="logical" >  T  T  T </v>
   <v type="logical" >  F  F  F </v>
   <v type="logical" >  F  F  F </v>
   <v type="logical" >  F  F  F </v>
   <v type="logical" >  F  F  F </v>
   <v type="logical" >  F  F  F </v>
   <v type="logical" >  F  F  F </v>
   <v type="logical" >  T  T  T </v>
   <v type="logical" >  T  T  T </v>
   <v type="logical" >  F  F  F </v>
   <v type="logical" >  F  F  F </v>
   <v type="logical" >  F  F  F </v>
   <v type="logical" >  F  F  F </v>
   <v type="logical" >  F  F  F </v>
   <v type="logical" >  F  F  F </v>
   <v type="logical" >  T  T  T </v>
   <v type="logical" >  T  T  T </v>
   <v type="logical" >  F  F  F </v>
   <v type="logical" >  F  F  F </v>
   <v type="logical" >  F  F  F </v>
   <v type="logical" >  F  F  F </v>
   <v type="logical" >  F  F  F </v>
   <v type="logical" >  F  F  F </v>
   <v type="logical" >  T  T  T </v>
   <v type="logical" >  T  T  T </v>
   <v type="logical" >  F  F  F </v>
   <v type="logical" >  F  F  F </v>
   <v type="logical" >  F  F  F </v>
   <v type="logical" >  F  F  F </v>
   <v type="logical" >  F  F  F </v>
   <v type="logical" >  F  F  F </v>
   <v type="logical" >  T  T  T </v>
   <v type="logical" >  T  T  T </v>
   <v type="logical" >  F  F  F </v>
   <v type="logical" >  F  F  F </v>
   <v type="logical" >  F  F  F </v>
   <v type="logical" >  F  F  F </v>
   <v type="logical" >  F  F  F </v>
   <v type="logical" >  F  F  F </v>
   <v type="logical" >  T  T  T </v>
   <v type="logical" >  T  T  T </v>
   <v type="logical" >  F  F  F </v>
   <v type="logical" >  F  F  F </v>
   <v type="logical" >  F  F  F </v>
   <v type="logical" >  F  F  F </v>
   <v type="logical" >  F  F  F </v>
   <v type="logical" >  F  F  F </v>
   <v type="logical" >  F  F  F </v>
   <v type="logical" >  F  F  F </v>
   <v type="logical" >  F  F  F </v>
   <v type="logical" >  F  F  F </v>
   <v type="logical" >  F  F  F </v>
   <v type="logical" >  F  F  F </v>
   <v type="logical" >  F  F  F </v>
   <v type="logical" >  F  F  F </v>
   <v type="logical" >  F  F  F </v>
   <v type="logical" >  F  F  F </v>
   <v type="logical" >  F  F  F </v>
   <v type="logical" >  F  F  F </v>
   <v type="logical" >  F  F  F </v>
   <v type="logical" >  F  F  F </v>
   <v type="logical" >  F  F  F </v>
   <v type="logical" >  F  F  F </v>
   <v type="logical" >  F  F  F </v>
   <v type="logical" >  F  F  F </v>
   <v type="logical" >  F  F  F </v>
   <v type="logical" >  F  F  F </v>
   <v type="logical" >  F  F  F </v>
   <v type="logical" >  F  F  F </v>
   <v type="logical" >  F  F  F </v>
   <v type="logical" >  F  F  F </v>
   <v type="logical" >  F  F  F </v>
   <v type="logical" >  F  F  F </v>
   <v type="logical" >  F  F  F </v>
   <v type="logical" >  F  F  F </v>
   <v type="logical" >  F  F  F </v>
   <v type="logical" >  F  F  F </v>
   <v type="logical" >  F  F  F </v>
   <v type="logical" >  F  F  F </v>
   <v type="logical" >  F  F  F </v>
   <v type="logical" >  F  F  F </v>
   <v type="logical" >  F  F  F </v>
   <v type="logical" >  F  F  F </v>
   <v type="logical" >  F  F  F </v>
   <v type="logical" >  F  F  F </v>
   <v type="logical" >  F  F  F </v>
   <v type="logical" >  F  F  F </v>
   <v type="logical" >  F  F  F </v>
   <v type="logical" >  F  F  F </v>
   <v type="logical" >  F  F  F </v>
   <v type="logical" >  F  F  F </v>
   <v type="logical" >  F  F  F </v>
   <v type="logical" >  F  F  F </v>
  </varray>
  <nose>
   <v>      -3.00000000       0.00000000       0.00010000       0.00010000 </v>
  </nose>
 </structure>
 <calculation>
  <scstep>
   <time name="dav">   45.30    6.49</time>
   <time name="total">   54.66    7.91</time>
   <energy>
    <i name="alphaZ">    292.45958487 </i>
    <i name="ewald">  29164.43799919 </i>
    <i name="hartreedc"> -40869.31343296 </i>
    <i name="XCdc">    227.64285616 </i>
    <i name="pawpsdc">   3398.83426340 </i>
    <i name="pawaedc">  -2609.57693563 </i>
    <i name="eentropy">     -0.10119248 </i>
    <i name="bandstr">    478.39290743 </i>
    <i name="atom">  12010.34264613 </i>
    <i name="e_fr_energy">   2093.11869612 </i>
    <i name="e_wo_entrp">   2093.21988859 </i>
    <i name="e_0_energy">   2093.16929235 </i>
   </energy>
  </scstep>
  <scstep>
   <time name="dav">   54.84    7.85</time>
   <time name="total">   54.85    7.85</time>
   <energy>
    <i name="e_fr_energy">   -462.39087534 </i>
    <i name="e_wo_entrp">   -462.39087534 </i>
    <i name="e_0_energy">   -462.39087534 </i>
   </energy>
  </scstep>
  <scstep>
   <time name="dav">   54.84    7.85</time>
   <time name="total">   54.85    7.85</time>
   <energy>
    <i name="e_fr_energy">   -765.06016039 </i>
    <i name="e_wo_entrp">   -765.06016039 </i>
    <i name="e_0_energy">   -765.06016039 </i>
   </energy>
  </scstep>
  <scstep>
   <time name="dav">   56.59    8.10</time>
   <time name="total">   56.60    8.10</time>
   <energy>
    <i name="e_fr_energy">   -781.83960783 </i>
    <i name="e_wo_entrp">   -781.83960783 </i>
    <i name="e_0_energy">   -781.83960783 </i>
   </energy>
  </scstep>
  <scstep>
   <time name="dav">   58.10    8.33</time>
   <time name="total">   61.82    9.10</time>
   <energy>
    <i name="e_fr_energy">   -782.38234497 </i>
    <i name="e_wo_entrp">   -782.38234497 </i>
    <i name="e_0_energy">   -782.38234497 </i>
   </energy>
  </scstep>
  <scstep>
   <time name="diag">    3.49    0.79</time>
   <time name="diis">    6.85    3.01</time>
   <time name="orth">    0.12    0.06</time>
   <time name="total">   22.30    5.99</time>
   <energy>
    <i name="e_fr_energy">   -698.57363315 </i>
    <i name="e_wo_entrp">   -698.49429417 </i>
    <i name="e_0_energy">   -698.53396366 </i>
   </energy>
  </scstep>
  <scstep>
   <time name="diag">    3.50    0.78</time>
   <time name="diis">    7.07    3.12</time>
   <time name="orth">    0.12    0.06</time>
   <time name="total">   22.57    6.10</time>
   <energy>
    <i name="e_fr_energy">   -678.92251993 </i>
    <i name="e_wo_entrp">   -678.91989053 </i>
    <i name="e_0_energy">   -678.92120523 </i>
   </energy>
  </scstep>
  <scstep>
   <time name="diag">    3.47    0.78</time>
   <time name="diis">    7.52    3.38</time>
   <time name="orth">    0.12    0.06</time>
   <time name="total">   23.27    6.41</time>
   <energy>
    <i name="e_fr_energy">   -678.35930419 </i>
    <i name="e_wo_entrp">   -678.23322173 </i>
    <i name="e_0_energy">   -678.29626296 </i>
   </energy>
  </scstep>
  <scstep>
   <time name="diag">    3.50    0.78</time>
   <time name="diis">    6.75    2.95</time>
   <time name="orth">    0.12    0.06</time>
   <time name="total">   22.38    5.96</time>
   <energy>
    <i name="e_fr_energy">   -677.60960383 </i>
    <i name="e_wo_entrp">   -677.60055169 </i>
    <i name="e_0_energy">   -677.60507776 </i>
   </energy>
  </scstep>
  <scstep>
   <time name="diag">    3.50    0.78</time>
   <time name="diis">    7.03    3.10</time>
   <time name="orth">    0.12    0.06</time>
   <time name="total">   22.69    6.12</time>
   <energy>
    <i name="e_fr_energy">   -673.21067600 </i>
    <i name="e_wo_entrp">   -672.90004294 </i>
    <i name="e_0_energy">   -673.05535947 </i>
   </energy>
  </scstep>
  <scstep>
   <time name="diag">    3.50    0.78</time>
   <time name="diis">    7.82    3.50</time>
   <time name="orth">    0.12    0.06</time>
   <time name="total">   23.41    6.50</time>
   <energy>
    <i name="e_fr_energy">   -672.96173617 </i>
    <i name="e_wo_entrp">   -672.62274907 </i>
    <i name="e_0_energy">   -672.79224262 </i>
   </energy>
  </scstep>
  <scstep>
   <time name="diag">    3.47    0.78</time>
   <time name="diis">    7.24    3.21</time>
   <time name="orth">    0.12    0.06</time>
   <time name="total">   22.84    6.21</time>
   <energy>
    <i name="e_fr_energy">   -672.88225688 </i>
    <i name="e_wo_entrp">   -672.51149443 </i>
    <i name="e_0_energy">   -672.69687565 </i>
   </energy>
  </scstep>
  <scstep>
   <time name="diag">    3.52    0.78</time>
   <time name="diis">    6.99    3.08</time>
   <time name="orth">    0.12    0.06</time>
   <time name="total">   22.67    6.09</time>
   <energy>
    <i name="e_fr_energy">   -672.69567427 </i>
    <i name="e_wo_entrp">   -672.33324889 </i>
    <i name="e_0_energy">   -672.51446158 </i>
   </energy>
  </scstep>
  <scstep>
   <time name="diag">    3.48    0.78</time>
   <time name="diis">    7.23    3.20</time>
   <time name="orth">    0.12    0.06</time>
   <time name="total">   22.97    6.23</time>
   <energy>
    <i name="e_fr_energy">   -672.56939808 </i>
    <i name="e_wo_entrp">   -672.17709159 </i>
    <i name="e_0_energy">   -672.37324483 </i>
   </energy>
  </scstep>
  <scstep>
   <time name="diag">    3.51    0.78</time>
   <time name="diis">    7.65    3.41</time>
   <time name="orth">    0.12    0.06</time>
   <time name="total">   23.37    6.42</time>
   <energy>
    <i name="e_fr_energy">   -672.53467639 </i>
    <i name="e_wo_entrp">   -672.14011828 </i>
    <i name="e_0_energy">   -672.33739733 </i>
   </energy>
  </scstep>
  <scstep>
   <time name="diag">    3.51    0.78</time>
   <time name="diis">    7.50    3.32</time>
   <time name="orth">    0.12    0.06</time>
   <time name="total">   23.29    6.34</time>
   <energy>
    <i name="e_fr_energy">   -672.57791582 </i>
    <i name="e_wo_entrp">   -672.18152330 </i>
    <i name="e_0_energy">   -672.37971956 </i>
   </energy>
  </scstep>
  <scstep>
   <time name="diag">    3.47    0.78</time>
   <time name="diis">    6.68    2.90</time>
   <time name="orth">    0.12    0.06</time>
   <time name="total">   22.44    5.93</time>
   <energy>
    <i name="e_fr_energy">   -672.54620847 </i>
    <i name="e_wo_entrp">   -672.14948166 </i>
    <i name="e_0_energy">   -672.34784506 </i>
   </energy>
  </scstep>
  <scstep>
   <time name="diag">    3.51    0.78</time>
   <time name="diis">    7.44    3.29</time>
   <time name="orth">    0.12    0.06</time>
   <time name="total">   23.33    6.33</time>
   <energy>
    <i name="e_fr_energy">   -672.54791179 </i>
    <i name="e_wo_entrp">   -672.15267435 </i>
    <i name="e_0_energy">   -672.35029307 </i>
   </energy>
  </scstep>
  <scstep>
   <time name="diag">    3.56    0.79</time>
   <time name="diis">    7.12    3.17</time>
   <time name="orth">    0.12    0.06</time>
   <time name="total">   22.97    6.21</time>
   <energy>
    <i name="e_fr_energy">   -672.55307036 </i>
    <i name="e_wo_entrp">   -672.15673195 </i>
    <i name="e_0_energy">   -672.35490116 </i>
   </energy>
  </scstep>
  <scstep>
   <time name="diag">    3.51    0.78</time>
   <time name="diis">    7.58    3.38</time>
   <time name="orth">    0.12    0.06</time>
   <time name="total">   23.41    6.42</time>
   <energy>
    <i name="e_fr_energy">   -672.55411780 </i>
    <i name="e_wo_entrp">   -672.15844789 </i>
    <i name="e_0_energy">   -672.35628285 </i>
   </energy>
  </scstep>
  <scstep>
   <time name="diag">    3.50    0.78</time>
   <time name="diis">    7.21    3.18</time>
   <time name="orth">    0.12    0.06</time>
   <time name="total">   23.07    6.23</time>
   <energy>
    <i name="e_fr_energy">   -672.55475570 </i>
    <i name="e_wo_entrp">   -672.15944585 </i>
    <i name="e_0_energy">   -672.35710077 </i>
   </energy>
  </scstep>
  <scstep>
   <time name="diag">    3.51    0.78</time>
   <time name="diis">    7.34    3.25</time>
   <time name="orth">    0.12    0.06</time>
   <time name="total">   23.17    6.28</time>
   <energy>
    <i name="e_fr_energy">   -672.55540966 </i>
    <i name="e_wo_entrp">   -672.15997351 </i>
    <i name="e_0_energy">   -672.35769159 </i>
   </energy>
  </scstep>
  <scstep>
   <time name="diag">    3.51    0.78</time>
   <time name="diis">    6.98    3.08</time>
   <time name="orth">    0.12    0.06</time>
   <time name="total">   22.87    6.12</time>
   <energy>
    <i name="e_fr_energy">   -672.55550196 </i>
    <i name="e_wo_entrp">   -672.16017903 </i>
    <i name="e_0_energy">   -672.35784049 </i>
   </energy>
  </scstep>
  <scstep>
   <time name="diag">    3.51    0.78</time>
   <time name="diis">    6.96    3.06</time>
   <time name="orth">    0.12    0.06</time>
   <time name="total">   22.89    6.11</time>
   <energy>
    <i name="e_fr_energy">   -672.55557122 </i>
    <i name="e_wo_entrp">   -672.16033175 </i>
    <i name="e_0_energy">   -672.35795149 </i>
   </energy>
  </scstep>
  <scstep>
   <time name="diag">    3.60    0.80</time>
   <time name="diis">    5.49    2.36</time>
   <time name="orth">    0.12    0.06</time>
   <time name="total">   21.66    5.45</time>
   <energy>
    <i name="e_fr_energy">   -672.55559674 </i>
    <i name="e_wo_entrp">   -672.16036307 </i>
    <i name="e_0_energy">   -672.35797991 </i>
   </energy>
  </scstep>
  <scstep>
   <time name="diag">    3.50    0.78</time>
   <time name="diis">    5.13    2.14</time>
   <time name="orth">    0.12    0.06</time>
   <time name="total">   21.22    5.23</time>
   <energy>
    <i name="e_fr_energy">   -672.55560668 </i>
    <i name="e_wo_entrp">   -672.16037875 </i>
    <i name="e_0_energy">   -672.35799272 </i>
   </energy>
  </scstep>
  <scstep>
   <time name="diag">    3.51    0.78</time>
   <time name="diis">    4.55    1.85</time>
   <time name="orth">    0.12    0.06</time>
   <time name="total">   17.33    4.08</time>
   <energy>
    <i name="alphaZ">    292.45958487 </i>
    <i name="ewald">  29164.43799919 </i>
    <i name="hartreedc"> -41705.68778933 </i>
    <i name="XCdc">    275.42795026 </i>
    <i name="pawpsdc">   4655.65177443 </i>
    <i name="pawaedc">  -3875.56163937 </i>
    <i name="eentropy">     -0.39522375 </i>
    <i name="bandstr">  -1489.23090974 </i>
    <i name="atom">  12010.34264613 </i>
    <i name="e_fr_energy">   -672.55560732 </i>
    <i name="e_wo_entrp">   -672.16038357 </i>
    <i name="e_0_energy">   -672.35799544 </i>
   </energy>
  </scstep>
  <structure>
   <crystal>
    <varray name="basis" >
     <v>       9.28426200       0.00000000       0.00000000 </v>
     <v>       0.00000000      10.72054200       0.00000000 </v>
     <v>       0.00000000       0.00000000      18.22724100 </v>
    </varray>
    <i name="volume">   1814.19959687 </i>
    <varray name="rec_basis" >
     <v>       0.10770915       0.00000000       0.00000000 </v>
     <v>       0.00000000       0.09327887       0.00000000 </v>
     <v>       0.00000000       0.00000000       0.05486294 </v>
    </varray>
   </crystal>
   <varray name="positions" >
    <v>       0.00000000       0.00000000       0.31213000 </v>
    <v>       0.16666700       0.25000000       0.31213000 </v>
    <v>       0.00000000       0.33333300       0.45137100 </v>
    <v>       0.16666700       0.08333300       0.45137100 </v>
    <v>       0.00000000       0.16666600       0.03482200 </v>
    <v>       0.16666700       0.41666600       0.03482200 </v>
    <v>       0.00000000       0.33333300       0.17351800 </v>
    <v>       0.16666700       0.08333300       0.17351800 </v>
    <v>       0.33333300       0.00000000       0.31213000 </v>
    <v>       0.50000000       0.25000000       0.31213000 </v>
    <v>       0.33333300       0.33333400       0.45137100 </v>
    <v>       0.50000000       0.08333300       0.45137100 </v>
    <v>       0.33333300       0.16666600       0.03482200 </v>
    <v>       0.50000000       0.41666600       0.03482200 </v>
    <v>       0.33333300       0.33333400       0.17351800 </v>
    <v>       0.50000000       0.08333300       0.17351800 </v>
    <v>       0.66666700       0.00000000       0.31213000 </v>
    <v>       0.83333300       0.25000000       0.31213000 </v>
    <v>       0.66666700       0.33333300       0.45137100 </v>
    <v>       0.83333300       0.08333300       0.45137100 </v>
    <v>       0.66666700       0.16666600       0.03482200 </v>
    <v>       0.83333300       0.41666600       0.03482200 </v>
    <v>       0.66666700       0.33333300       0.17351800 </v>
    <v>       0.83333300       0.08333300       0.17351800 </v>
    <v>       0.00000000       0.50000000       0.31213000 </v>
    <v>       0.16666700       0.75000000       0.31213000 </v>
    <v>       0.00000000       0.83333300       0.45137100 </v>
    <v>       0.16666700       0.58333300       0.45137100 </v>
    <v>       0.00000000       0.66666600       0.03482200 </v>
    <v>       0.16666700       0.91666600       0.03482200 </v>
    <v>       0.00000000       0.83333300       0.17351800 </v>
    <v>       0.16666700       0.58333300       0.17351800 </v>
    <v>       0.33333300       0.50000000       0.31213000 </v>
    <v>       0.50000000       0.75000000       0.31213000 </v>
    <v>       0.33333300       0.83333300       0.45137100 </v>
    <v>       0.50000000       0.58333300       0.45137100 </v>
    <v>       0.33333300       0.66666600       0.03482200 </v>
    <v>       0.50000000       0.91666600       0.03482200 </v>
    <v>       0.33333300       0.83333300       0.17351800 </v>
    <v>       0.50000000       0.58333300       0.17351800 </v>
    <v>       0.66666700       0.50000000       0.31213000 </v>
    <v>       0.83333300       0.75000000       0.31213000 </v>
    <v>       0.66666700       0.83333300       0.45137100 </v>
    <v>       0.83333300       0.58333300       0.45137100 </v>
    <v>       0.66666700       0.66666600       0.03482200 </v>
    <v>       0.83333300       0.91666600       0.03482200 </v>
    <v>       0.66666700       0.83333300       0.17351800 </v>
    <v>       0.83333300       0.58333300       0.17351800 </v>
    <v>       0.00000000       0.00000000       0.00000000 </v>
    <v>       0.16666700       0.25000000       0.00000000 </v>
    <v>       0.00000000       0.00000000       0.41654900 </v>
    <v>       0.16666700       0.25000000       0.41654900 </v>
    <v>       0.00000000       0.16666600       0.13894900 </v>
    <v>       0.16666700       0.41666600       0.13894900 </v>
    <v>       0.00000000       0.33333300       0.27764900 </v>
    <v>       0.16666700       0.08333300       0.27764900 </v>
    <v>       0.33333300       0.00000000       0.00000000 </v>
    <v>       0.50000000       0.25000000       0.00000000 </v>
    <v>       0.33333300       0.00000000       0.41654900 </v>
    <v>       0.50000000       0.25000000       0.41654900 </v>
    <v>       0.33333300       0.16666600       0.13894900 </v>
    <v>       0.50000000       0.41666600       0.13894900 </v>
    <v>       0.33333300       0.33333400       0.27764900 </v>
    <v>       0.50000000       0.08333300       0.27764900 </v>
    <v>       0.66666700       0.00000000       0.00000000 </v>
    <v>       0.83333300       0.25000000       0.00000000 </v>
    <v>       0.66666700       0.00000000       0.41654900 </v>
    <v>       0.83333300       0.25000000       0.41654900 </v>
    <v>       0.66666700       0.16666600       0.13894900 </v>
    <v>       0.83333300       0.41666600       0.13894900 </v>
    <v>       0.66666700       0.33333300       0.27764900 </v>
    <v>       0.83333300       0.08333300       0.27764900 </v>
    <v>       0.00000000       0.50000000       0.00000000 </v>
    <v>       0.16666700       0.75000000       0.00000000 </v>
    <v>       0.00000000       0.50000000       0.41654900 </v>
    <v>       0.16666700       0.75000000       0.41654900 </v>
    <v>       0.00000000       0.66666600       0.13894900 </v>
    <v>       0.16666700       0.91666600       0.13894900 </v>
    <v>       0.00000000       0.83333300       0.27764900 </v>
    <v>       0.16666700       0.58333300       0.27764900 </v>
    <v>       0.33333300       0.50000000       0.00000000 </v>
    <v>       0.50000000       0.75000000       0.00000000 </v>
    <v>       0.33333300       0.50000000       0.41654900 </v>
    <v>       0.50000000       0.75000000       0.41654900 </v>
    <v>       0.33333300       0.66666600       0.13894900 </v>
    <v>       0.50000000       0.91666600       0.13894900 </v>
    <v>       0.33333300       0.83333300       0.27764900 </v>
    <v>       0.50000000       0.58333300       0.27764900 </v>
    <v>       0.66666700       0.50000000       0.00000000 </v>
    <v>       0.83333300       0.75000000       0.00000000 </v>
    <v>       0.66666700       0.50000000       0.41654900 </v>
    <v>       0.83333300       0.75000000       0.41654900 </v>
    <v>       0.66666700       0.66666600       0.13894900 </v>
    <v>       0.83333300       0.91666600       0.13894900 </v>
    <v>       0.66666700       0.83333300       0.27764900 </v>
    <v>       0.83333300       0.58333300       0.27764900 </v>
   </varray>
  </structure>
  <varray name="forces" >
   <v>       0.00000000      -0.00123761      -0.93104063 </v>
   <v>       0.00000000      -0.00123761      -0.93104063 </v>
   <v>      -0.00000000      -0.00630759      -2.32190858 </v>
   <v>      -0.00000000      -0.00630759      -2.32190858 </v>
   <v>      -0.00000000      -0.00197462      -1.05647454 </v>
   <v>       0.00000000      -0.00197462      -1.05647454 </v>
   <v>       0.00000000      -0.00120348      -0.52895544 </v>
   <v>       0.00000000      -0.00120348      -0.52895544 </v>
   <v>      -0.00000000      -0.00123761      -0.93104063 </v>
   <v>      -0.00000000      -0.00123761      -0.93104063 </v>
   <v>       0.00000000      -0.00630759      -2.32190858 </v>
   <v>       0.00000000      -0.00630759      -2.32190858 </v>
   <v>      -0.00000000      -0.00197462      -1.05647454 </v>
   <v>       0.00000000      -0.00197462      -1.05647454 </v>
   <v>      -0.00000000      -0.00120348      -0.52895544 </v>
   <v>       0.00000000      -0.00120348      -0.52895544 </v>
   <v>       0.00000000      -0.00123761      -0.93104063 </v>
   <v>       0.00000000      -0.00123761      -0.93104063 </v>
   <v>       0.00000000      -0.00630759      -2.32190858 </v>
   <v>       0.00000000      -0.00630759      -2.32190858 </v>
   <v>       0.00000000      -0.00197462      -1.05647454 </v>
   <v>      -0.00000000      -0.00197462      -1.05647454 </v>
   <v>       0.00000000      -0.00120348      -0.52895544 </v>
   <v>      -0.00000000      -0.00120348      -0.52895544 </v>
   <v>       0.00000000      -0.00123761      -0.93104063 </v>
   <v>      -0.00000000      -0.00123761      -0.93104063 </v>
   <v>       0.00000000      -0.00630759      -2.32190858 </v>
   <v>      -0.00000000      -0.00630759      -2.32190858 </v>
   <v>       0.00000000      -0.00197462      -1.05647454 </v>
   <v>       0.00000000      -0.00197462      -1.05647454 </v>
   <v>      -0.00000000      -0.00120348      -0.52895544 </v>
   <v>       0.00000000      -0.00120348      -0.52895544 </v>
   <v>      -0.00000000      -0.00123761      -0.93104063 </v>
   <v>      -0.00000000      -0.00123761      -0.93104063 </v>
   <v>       0.00000000      -0.00630759      -2.32190858 </v>
   <v>      -0.00000000      -0.00630759      -2.32190858 </v>
   <v>       0.00000000      -0.00197462      -1.05647454 </v>
   <v>      -0.00000000      -0.00197462      -1.05647454 </v>
   <v>       0.00000000      -0.00120348      -0.52895544 </v>
   <v>      -0.00000000      -0.00120348      -0.52895544 </v>
   <v>       0.00000000      -0.00123761      -0.93104063 </v>
   <v>      -0.00000000      -0.00123761      -0.93104063 </v>
   <v>      -0.00000000      -0.00630759      -2.32190858 </v>
   <v>      -0.00000000      -0.00630759      -2.32190858 </v>
   <v>       0.00000000      -0.00197462      -1.05647454 </v>
   <v>       0.00000000      -0.00197462      -1.05647454 </v>
   <v>       0.00000000      -0.00120348      -0.52895544 </v>
   <v>      -0.00000000      -0.00120348      -0.52895544 </v>
   <v>       0.00000000      -0.00016135       0.80286962 </v>
   <v>       0.00000000      -0.00016135       0.80286962 </v>
   <v>       0.00000000       0.00873339       2.76020233 </v>
   <v>      -0.00000000       0.00873339       2.76020233 </v>
   <v>      -0.00000000       0.00148329       0.49884124 </v>
   <v>      -0.00000000       0.00148329       0.49884124 </v>
   <v>       0.00000000       0.00066797       0.77646601 </v>
   <v>       0.00000000       0.00066797       0.77646601 </v>
   <v>       0.00000000      -0.00016135       0.80286962 </v>
   <v>       0.00000000      -0.00016135       0.80286962 </v>
   <v>      -0.00000000       0.00873339       2.76020233 </v>
   <v>      -0.00000000       0.00873339       2.76020233 </v>
   <v>       0.00000000       0.00148329       0.49884124 </v>
   <v>       0.00000000       0.00148329       0.49884124 </v>
   <v>       0.00000000       0.00066797       0.77646601 </v>
   <v>       0.00000000       0.00066797       0.77646601 </v>
   <v>      -0.00000000      -0.00016135       0.80286962 </v>
   <v>       0.00000000      -0.00016135       0.80286962 </v>
   <v>      -0.00000000       0.00873339       2.76020233 </v>
   <v>       0.00000000       0.00873339       2.76020233 </v>
   <v>       0.00000000       0.00148329       0.49884124 </v>
   <v>      -0.00000000       0.00148329       0.49884124 </v>
   <v>       0.00000000       0.00066797       0.77646601 </v>
   <v>      -0.00000000       0.00066797       0.77646601 </v>
   <v>       0.00000000      -0.00016135       0.80286962 </v>
   <v>      -0.00000000      -0.00016135       0.80286962 </v>
   <v>      -0.00000000       0.00873339       2.76020233 </v>
   <v>      -0.00000000       0.00873339       2.76020233 </v>
   <v>       0.00000000       0.00148329       0.49884124 </v>
   <v>      -0.00000000       0.00148329       0.49884124 </v>
   <v>       0.00000000       0.00066797       0.77646601 </v>
   <v>       0.00000000       0.00066797       0.77646601 </v>
   <v>       0.00000000      -0.00016135       0.80286962 </v>
   <v>       0.00000000      -0.00016135       0.80286962 </v>
   <v>       0.00000000       0.00873339       2.76020233 </v>
   <v>       0.00000000       0.00873339       2.76020233 </v>
   <v>      -0.00000000       0.00148329       0.49884124 </v>
   <v>       0.00000000       0.00148329       0.49884124 </v>
   <v>      -0.00000000       0.00066797       0.77646601 </v>
   <v>      -0.00000000       0.00066797       0.77646601 </v>
   <v>      -0.00000000      -0.00016135       0.80286962 </v>
   <v>       0.00000000      -0.00016135       0.80286962 </v>
   <v>      -0.00000000       0.00873339       2.76020233 </v>
   <v>      -0.00000000       0.00873339       2.76020233 </v>
   <v>       0.00000000       0.00148329       0.49884124 </v>
   <v>      -0.00000000       0.00148329       0.49884124 </v>
   <v>       0.00000000       0.00066797       0.77646601 </v>
   <v>       0.00000000       0.00066797       0.77646601 </v>
  </varray>
  <varray name="stress" >
   <v>      -2.15704632       0.00000000       0.00000000 </v>
   <v>       0.00000000      -2.01732029       0.01095297 </v>
   <v>       0.00000000       0.01095284      -6.96553017 </v>
  </varray>
  <energy>
   <i name="e_fr_energy">   -672.55560732 </i>
   <i name="e_wo_entrp">   -672.16038357 </i>
   <i name="e_0_energy">   -672.35799544 </i>
  </energy>
  <time name="totalsc">  831.66  186.63</time>
 </calculation>
 <calculation>
  <scstep>
   <time name="dav">   46.63    6.67</time>
   <time name="total">   59.59    8.85</time>
   <energy>
    <i name="alphaZ">    292.45958487 </i>
    <i name="ewald">  29859.69260582 </i>
    <i name="hartreedc"> -42376.43562130 </i>
    <i name="XCdc">    277.51150931 </i>
    <i name="pawpsdc">   4655.64835000 </i>
    <i name="pawaedc">  -3875.55821083 </i>
    <i name="eentropy">     -0.37774149 </i>
    <i name="bandstr">  -1518.33911878 </i>
    <i name="atom">  12010.34264613 </i>
    <i name="e_fr_energy">   -675.05599627 </i>
    <i name="e_wo_entrp">   -674.67825478 </i>
    <i name="e_0_energy">   -674.86712552 </i>
   </energy>
  </scstep>
  <scstep>
   <time name="diag">    3.24    0.78</time>
   <time name="diis">    6.93    3.05</time>
   <time name="orth">    0.12    0.06</time>
   <time name="total">   22.51    6.08</time>
   <energy>
    <i name="e_fr_energy">   -676.43966178 </i>
    <i name="e_wo_entrp">   -676.25525447 </i>
    <i name="e_0_energy">   -676.34745812 </i>
   </energy>
  </scstep>
  <scstep>
   <time name="diag">    3.50    0.78</time>
   <time name="diis">    6.81    2.98</time>
   <time name="orth">    0.12    0.06</time>
   <time name="total">   22.32    5.99</time>
   <energy>
    <i name="e_fr_energy">   -675.22009189 </i>
    <i name="e_wo_entrp">   -674.83867003 </i>
    <i name="e_0_energy">   -675.02938096 </i>
   </energy>
  </scstep>
  <scstep>
   <time name="diag">    3.47    0.78</time>
   <time name="diis">    7.01    3.08</time>
   <time name="orth">    0.12    0.06</time>
   <time name="total">   22.57    6.08</time>
   <energy>
    <i name="e_fr_energy">   -675.11221060 </i>
    <i name="e_wo_entrp">   -674.73213923 </i>
    <i name="e_0_energy">   -674.92217492 </i>
   </energy>
  </scstep>
  <scstep>
   <time name="diag">    3.48    0.78</time>
   <time name="diis">    7.10    3.12</time>
   <time name="orth">    0.12    0.06</time>
   <time name="total">   22.69    6.11</time>
   <energy>
    <i name="e_fr_energy">   -675.09220228 </i>
    <i name="e_wo_entrp">   -674.70774080 </i>
    <i name="e_0_energy">   -674.89997154 </i>
   </energy>
  </scstep>
  <scstep>
   <time name="diag">    3.44    0.78</time>
   <time name="diis">    7.28    3.21</time>
   <time name="orth">    0.12    0.06</time>
   <time name="total">   22.89    6.21</time>
   <energy>
    <i name="e_fr_energy">   -675.09352431 </i>
    <i name="e_wo_entrp">   -674.70886086 </i>
    <i name="e_0_energy">   -674.90119259 </i>
   </energy>
  </scstep>
  <scstep>
   <time name="diag">    3.48    0.78</time>
   <time name="diis">    7.19    3.18</time>
   <time name="orth">    0.12    0.06</time>
   <time name="total">   22.84    6.19</time>
   <energy>
    <i name="e_fr_energy">   -675.09218552 </i>
    <i name="e_wo_entrp">   -674.70695688 </i>
    <i name="e_0_energy">   -674.89957120 </i>
   </energy>
  </scstep>
  <scstep>
   <time name="diag">    3.49    0.78</time>
   <time name="diis">    7.40    3.28</time>
   <time name="orth">    0.12    0.06</time>
   <time name="total">   23.21    6.34</time>
   <energy>
    <i name="e_fr_energy">   -675.09192789 </i>
    <i name="e_wo_entrp">   -674.70676783 </i>
    <i name="e_0_energy">   -674.89934786 </i>
   </energy>
  </scstep>
  <scstep>
   <time name="diag">    3.55    0.78</time>
   <time name="diis">    6.87    3.02</time>
   <time name="orth">    0.12    0.06</time>
   <time name="total">   22.56    6.06</time>
   <energy>
    <i name="e_fr_energy">   -675.09171123 </i>
    <i name="e_wo_entrp">   -674.70646658 </i>
    <i name="e_0_energy">   -674.89908891 </i>
   </energy>
  </scstep>
  <scstep>
   <time name="diag">    3.50    0.78</time>
   <time name="diis">    7.05    3.09</time>
   <time name="orth">    0.12    0.06</time>
   <time name="total">   22.88    6.12</time>
   <energy>
    <i name="e_fr_energy">   -675.09249333 </i>
    <i name="e_wo_entrp">   -674.70727999 </i>
    <i name="e_0_energy">   -674.89988666 </i>
   </energy>
  </scstep>
  <scstep>
   <time name="diag">    3.25    0.78</time>
   <time name="diis">    7.11    3.14</time>
   <time name="orth">    0.12    0.06</time>
   <time name="total">   22.89    6.23</time>
   <energy>
    <i name="e_fr_energy">   -675.09301886 </i>
    <i name="e_wo_entrp">   -674.70785438 </i>
    <i name="e_0_energy">   -674.90043662 </i>
   </energy>
  </scstep>
  <scstep>
   <time name="diag">    3.49    0.78</time>
   <time name="diis">    6.69    2.92</time>
   <time name="orth">    0.12    0.06</time>
   <time name="total">   22.41    5.93</time>
   <energy>
    <i name="e_fr_energy">   -675.09325458 </i>
    <i name="e_wo_entrp">   -674.70802868 </i>
    <i name="e_0_energy">   -674.90064163 </i>
   </energy>
  </scstep>
  <scstep>
   <time name="diag">    3.49    0.78</time>
   <time name="diis">    6.41    2.78</time>
   <time name="orth">    0.12    0.06</time>
   <time name="total">   22.24    5.80</time>
   <energy>
    <i name="e_fr_energy">   -675.09339273 </i>
    <i name="e_wo_entrp">   -674.70815683 </i>
    <i name="e_0_energy">   -674.90077478 </i>
   </energy>
  </scstep>
  <scstep>
   <time name="diag">    3.46    0.78</time>
   <time name="diis">    6.35    2.74</time>
   <time name="orth">    0.12    0.06</time>
   <time name="total">   22.12    5.76</time>
   <energy>
    <i name="e_fr_energy">   -675.09344043 </i>
    <i name="e_wo_entrp">   -674.70820092 </i>
    <i name="e_0_energy">   -674.90082067 </i>
   </energy>
  </scstep>
  <scstep>
   <time name="diag">    3.45    0.78</time>
   <time name="diis">    5.40    2.26</time>
   <time name="orth">    0.12    0.06</time>
   <time name="total">   21.21    5.29</time>
   <energy>
    <i name="e_fr_energy">   -675.09348066 </i>
    <i name="e_wo_entrp">   -674.70824788 </i>
    <i name="e_0_energy">   -674.90086427 </i>
   </energy>
  </scstep>
  <scstep>
   <time name="diag">    3.50    0.78</time>
   <time name="diis">    5.19    2.16</time>
   <time name="orth">    0.12    0.06</time>
   <time name="total">   21.17    5.22</time>
   <energy>
    <i name="e_fr_energy">   -675.09349713 </i>
    <i name="e_wo_entrp">   -674.70826560 </i>
    <i name="e_0_energy">   -674.90088137 </i>
   </energy>
  </scstep>
  <scstep>
   <time name="diag">    3.52    0.79</time>
   <time name="diis">    4.93    2.03</time>
   <time name="orth">    0.12    0.06</time>
   <time name="total">   20.71    5.08</time>
   <energy>
    <i name="e_fr_energy">   -675.09350365 </i>
    <i name="e_wo_entrp">   -674.70826666 </i>
    <i name="e_0_energy">   -674.90088515 </i>
   </energy>
  </scstep>
  <scstep>
   <time name="diag">    3.56    0.79</time>
   <time name="diis">    4.11    1.63</time>
   <time name="orth">    0.12    0.06</time>
   <time name="total">   17.07    3.88</time>
   <energy>
    <i name="alphaZ">    292.45958487 </i>
    <i name="ewald">  29859.69260582 </i>
    <i name="hartreedc"> -42419.76021964 </i>
    <i name="XCdc">    278.35855732 </i>
    <i name="pawpsdc">   4695.12469643 </i>
    <i name="pawaedc">  -3915.43230571 </i>
    <i name="eentropy">     -0.38523548 </i>
    <i name="bandstr">  -1475.49383414 </i>
    <i name="atom">  12010.34264613 </i>
    <i name="e_fr_energy">   -675.09350440 </i>
    <i name="e_wo_entrp">   -674.70826891 </i>
    <i name="e_0_energy">   -674.90088666 </i>
   </energy>
  </scstep>
  <structure>
   <crystal>
    <varray name="basis" >
     <v>       9.28426200       0.00000000       0.00000000 </v>
     <v>       0.00000000      10.72054200       0.00000000 </v>
     <v>       0.00000000       0.00000000      18.22724100 </v>
    </varray>
    <i name="volume">   1814.19959687 </i>
    <varray name="rec_basis" >
     <v>       0.10770915       0.00000000       0.00000000 </v>
     <v>       0.00000000       0.09327887       0.00000000 </v>
     <v>       0.00000000       0.00000000       0.05486294 </v>
    </varray>
   </crystal>
   <varray name="positions" >
    <v>       0.00000000       0.00000000       0.31213000 </v>
    <v>       0.16666700       0.25000000       0.31213000 </v>
    <v>      -0.00000000       0.33330462       0.44522553 </v>
    <v>       0.16666700       0.08330462       0.44522553 </v>
    <v>       0.00000000       0.16666600       0.03482200 </v>
    <v>       0.16666700       0.41666600       0.03482200 </v>
    <v>       0.00000000       0.33333300       0.17351800 </v>
    <v>       0.16666700       0.08333300       0.17351800 </v>
    <v>       0.33333300       0.00000000       0.31213000 </v>
    <v>       0.50000000       0.25000000       0.31213000 </v>
    <v>       0.33333300       0.33330562       0.44522553 </v>
    <v>       0.50000000       0.08330462       0.44522553 </v>
    <v>       0.33333300       0.16666600       0.03482200 </v>
    <v>       0.50000000       0.41666600       0.03482200 </v>
    <v>       0.33333300       0.33333400       0.17351800 </v>
    <v>       0.50000000       0.08333300       0.17351800 </v>
    <v>       0.66666700       0.00000000       0.31213000 </v>
    <v>       0.83333300       0.25000000       0.31213000 </v>
    <v>       0.66666700       0.33330462       0.44522553 </v>
    <v>       0.83333300       0.08330462       0.44522553 </v>
    <v>       0.66666700       0.16666600       0.03482200 </v>
    <v>       0.83333300       0.41666600       0.03482200 </v>
    <v>       0.66666700       0.33333300       0.17351800 </v>
    <v>       0.83333300       0.08333300       0.17351800 </v>
    <v>       0.00000000       0.50000000       0.31213000 </v>
    <v>       0.16666700       0.75000000       0.31213000 </v>
    <v>       0.00000000       0.83330462       0.44522553 </v>
    <v>       0.16666700       0.58330462       0.44522553 </v>
    <v>       0.00000000       0.66666600       0.03482200 </v>
    <v>       0.16666700       0.91666600       0.03482200 </v>
    <v>       0.00000000       0.83333300       0.17351800 </v>
    <v>       0.16666700       0.58333300       0.17351800 </v>
    <v>       0.33333300       0.50000000       0.31213000 </v>
    <v>       0.50000000       0.75000000       0.31213000 </v>
    <v>       0.33333300       0.83330462       0.44522553 </v>
    <v>       0.50000000       0.58330462       0.44522553 </v>
    <v>       0.33333300       0.66666600       0.03482200 </v>
    <v>       0.50000000       0.91666600       0.03482200 </v>
    <v>       0.33333300       0.83333300       0.17351800 </v>
    <v>       0.50000000       0.58333300       0.17351800 </v>
    <v>       0.66666700       0.50000000       0.31213000 </v>
    <v>       0.83333300       0.75000000       0.31213000 </v>
    <v>       0.66666700       0.83330462       0.44522553 </v>
    <v>       0.83333300       0.58330462       0.44522553 </v>
    <v>       0.66666700       0.66666600       0.03482200 </v>
    <v>       0.83333300       0.91666600       0.03482200 </v>
    <v>       0.66666700       0.83333300       0.17351800 </v>
    <v>       0.83333300       0.58333300       0.17351800 </v>
    <v>       0.00000000       0.00000000       0.00000000 </v>
    <v>       0.16666700       0.25000000       0.00000000 </v>
    <v>       0.00000000       0.00000000       0.41654900 </v>
    <v>       0.16666700       0.25000000       0.41654900 </v>
    <v>       0.00000000       0.16666600       0.13894900 </v>
    <v>       0.16666700       0.41666600       0.13894900 </v>
    <v>       0.00000000       0.33333300       0.27764900 </v>
    <v>       0.16666700       0.08333300       0.27764900 </v>
    <v>       0.33333300       0.00000000       0.00000000 </v>
    <v>       0.50000000       0.25000000       0.00000000 </v>
    <v>       0.33333300       0.00000000       0.41654900 </v>
    <v>       0.50000000       0.25000000       0.41654900 </v>
    <v>       0.33333300       0.16666600       0.13894900 </v>
    <v>       0.50000000       0.41666600       0.13894900 </v>
    <v>       0.33333300       0.33333400       0.27764900 </v>
    <v>       0.50000000       0.08333300       0.27764900 </v>
    <v>       0.66666700       0.00000000       0.00000000 </v>
    <v>       0.83333300       0.25000000       0.00000000 </v>
    <v>       0.66666700       0.00000000       0.41654900 </v>
    <v>       0.83333300       0.25000000       0.41654900 </v>
    <v>       0.66666700       0.16666600       0.13894900 </v>
    <v>       0.83333300       0.41666600       0.13894900 </v>
    <v>       0.66666700       0.33333300       0.27764900 </v>
    <v>       0.83333300       0.08333300       0.27764900 </v>
    <v>       0.00000000       0.50000000       0.00000000 </v>
    <v>       0.16666700       0.75000000       0.00000000 </v>
    <v>       0.00000000       0.50000000       0.41654900 </v>
    <v>       0.16666700       0.75000000       0.41654900 </v>
    <v>       0.00000000       0.66666600       0.13894900 </v>
    <v>       0.16666700       0.91666600       0.13894900 </v>
    <v>       0.00000000       0.83333300       0.27764900 </v>
    <v>       0.16666700       0.58333300       0.27764900 </v>
    <v>       0.33333300       0.50000000       0.00000000 </v>
    <v>       0.50000000       0.75000000       0.00000000 </v>
    <v>       0.33333300       0.50000000       0.41654900 </v>
    <v>       0.50000000       0.75000000       0.41654900 </v>
    <v>       0.33333300       0.66666600       0.13894900 </v>
    <v>       0.50000000       0.91666600       0.13894900 </v>
    <v>       0.33333300       0.83333300       0.27764900 </v>
    <v>       0.50000000       0.58333300       0.27764900 </v>
    <v>       0.66666700       0.50000000       0.00000000 </v>
    <v>       0.83333300       0.75000000       0.00000000 </v>
    <v>       0.66666700       0.50000000       0.41654900 </v>
    <v>       0.83333300       0.75000000       0.41654900 </v>
    <v>       0.66666700       0.66666600       0.13894900 </v>
    <v>       0.83333300       0.91666600       0.13894900 </v>
    <v>       0.66666700       0.83333300       0.27764900 </v>
    <v>       0.83333300       0.58333300       0.27764900 </v>
   </varray>
  </structure>
  <varray name="forces" >
   <v>       0.00000000      -0.00015504      -1.21556002 </v>
   <v>      -0.00000000      -0.00015504      -1.21556002 </v>
   <v>       0.00000000       0.00584461      -1.34370145 </v>
   <v>       0.00000000       0.00584461      -1.34370145 </v>
   <v>       0.00000000      -0.00195537      -1.02326674 </v>
   <v>       0.00000000      -0.00195537      -1.02326674 </v>
   <v>      -0.00000000      -0.00109672      -0.55293596 </v>
   <v>       0.00000000      -0.00109672      -0.55293596 </v>
   <v>      -0.00000000      -0.00015504      -1.21556002 </v>
   <v>       0.00000000      -0.00015504      -1.21556002 </v>
   <v>       0.00000000       0.00584461      -1.34370145 </v>
   <v>      -0.00000000       0.00584461      -1.34370145 </v>
   <v>       0.00000000      -0.00195537      -1.02326674 </v>
   <v>       0.00000000      -0.00195537      -1.02326674 </v>
   <v>       0.00000000      -0.00109672      -0.55293596 </v>
   <v>      -0.00000000      -0.00109672      -0.55293596 </v>
   <v>      -0.00000000      -0.00015504      -1.21556002 </v>
   <v>       0.00000000      -0.00015504      -1.21556002 </v>
   <v>       0.00000000       0.00584461      -1.34370145 </v>
   <v>       0.00000000       0.00584461      -1.34370145 </v>
   <v>      -0.00000000      -0.00195537      -1.02326674 </v>
   <v>       0.00000000      -0.00195537      -1.02326674 </v>
   <v>      -0.00000000      -0.00109672      -0.55293596 </v>
   <v>      -0.00000000      -0.00109672      -0.55293596 </v>
   <v>      -0.00000000      -0.00015504      -1.21556002 </v>
   <v>       0.00000000      -0.00015504      -1.21556002 </v>
   <v>       0.00000000       0.00584461      -1.34370145 </v>
   <v>      -0.00000000       0.00584461      -1.34370145 </v>
   <v>       0.00000000      -0.00195537      -1.02326674 </v>
   <v>       0.00000000      -0.00195537      -1.02326674 </v>
   <v>      -0.00000000      -0.00109672      -0.55293596 </v>
   <v>      -0.00000000      -0.00109672      -0.55293596 </v>
   <v>       0.00000000      -0.00015504      -1.21556002 </v>
   <v>       0.00000000      -0.00015504      -1.21556002 </v>
   <v>      -0.00000000       0.00584461      -1.34370145 </v>
   <v>      -0.00000000       0.00584461      -1.34370145 </v>
   <v>       0.00000000      -0.00195537      -1.02326674 </v>
   <v>       0.00000000      -0.00195537      -1.02326674 </v>
   <v>       0.00000000      -0.00109672      -0.55293596 </v>
   <v>      -0.00000000      -0.00109672      -0.55293596 </v>
   <v>      -0.00000000      -0.00015504      -1.21556002 </v>
   <v>       0.00000000      -0.00015504      -1.21556002 </v>
   <v>       0.00000000       0.00584461      -1.34370145 </v>
   <v>      -0.00000000       0.00584461      -1.34370145 </v>
   <v>       0.00000000      -0.00195537      -1.02326674 </v>
   <v>      -0.00000000      -0.00195537      -1.02326674 </v>
   <v>      -0.00000000      -0.00109672      -0.55293596 </v>
   <v>       0.00000000      -0.00109672      -0.55293596 </v>
   <v>      -0.00000000       0.00048744       0.75505482 </v>
   <v>       0.00000000       0.00048744       0.75505482 </v>
   <v>       0.00000000      -0.00672680       1.99241648 </v>
   <v>      -0.00000000      -0.00672680       1.99241648 </v>
   <v>      -0.00000000       0.00202784       0.52024205 </v>
   <v>      -0.00000000       0.00202784       0.52024205 </v>
   <v>      -0.00000000       0.00157406       0.86775083 </v>
   <v>       0.00000000       0.00157406       0.86775083 </v>
   <v>      -0.00000000       0.00048744       0.75505482 </v>
   <v>      -0.00000000       0.00048744       0.75505482 </v>
   <v>       0.00000000      -0.00672680       1.99241648 </v>
   <v>      -0.00000000      -0.00672680       1.99241648 </v>
   <v>      -0.00000000       0.00202784       0.52024205 </v>
   <v>       0.00000000       0.00202784       0.52024205 </v>
   <v>      -0.00000000       0.00157406       0.86775083 </v>
   <v>      -0.00000000       0.00157406       0.86775083 </v>
   <v>       0.00000000       0.00048744       0.75505482 </v>
   <v>      -0.00000000       0.00048744       0.75505482 </v>
   <v>      -0.00000000      -0.00672680       1.99241648 </v>
   <v>       0.00000000      -0.00672680       1.99241648 </v>
   <v>       0.00000000       0.00202784       0.52024205 </v>
   <v>      -0.00000000       0.00202784       0.52024205 </v>
   <v>      -0.00000000       0.00157406       0.86775083 </v>
   <v>      -0.00000000       0.00157406       0.86775083 </v>
   <v>      -0.00000000       0.00048744       0.75505482 </v>
   <v>      -0.00000000       0.00048744       0.75505482 </v>
   <v>       0.00000000      -0.00672680       1.99241648 </v>
   <v>      -0.00000000      -0.00672680       1.99241648 </v>
   <v>      -0.00000000       0.00202784       0.52024205 </v>
   <v>      -0.00000000       0.00202784       0.52024205 </v>
   <v>      -0.00000000       0.00157406       0.86775083 </v>
   <v>      -0.00000000       0.00157406       0.86775083 </v>
   <v>      -0.00000000       0.00048744       0.75505482 </v>
   <v>      -0.00000000       0.00048744       0.75505482 </v>
   <v>       0.00000000      -0.00672680       1.99241648 </v>
   <v>       0.00000000      -0.00672680       1.99241648 </v>
   <v>      -0.00000000       0.00202784       0.52024205 </v>
   <v>       0.00000000       0.00202784       0.52024205 </v>
   <v>       0.00000000       0.00157406       0.86775083 </v>
   <v>      -0.00000000       0.00157406       0.86775083 </v>
   <v>       0.00000000       0.00048744       0.75505482 </v>
   <v>      -0.00000000       0.00048744       0.75505482 </v>
   <v>       0.00000000      -0.00672680       1.99241648 </v>
   <v>      -0.00000000      -0.00672680       1.99241648 </v>
   <v>      -0.00000000       0.00202784       0.52024205 </v>
   <v>      -0.00000000       0.00202784       0.52024205 </v>
   <v>       0.00000000       0.00157406       0.86775083 </v>
   <v>      -0.00000000       0.00157406       0.86775083 </v>
  </varray>
  <varray name="stress" >
   <v>       6.11113978       0.00000000       0.00000000 </v>
   <v>       0.00000000       6.02979561       0.08730552 </v>
   <v>       0.00000000       0.08730547       5.99146527 </v>
  </varray>
  <energy>
   <i name="e_fr_energy">   -675.09350440 </i>
   <i name="e_wo_entrp">   -674.70826891 </i>
   <i name="e_0_energy">   -674.90088666 </i>
  </energy>
  <time name="totalsc">  486.71  120.35</time>
 </calculation>
 <calculation>
  <scstep>
   <time name="dav">   44.96    6.44</time>
   <time name="total">   57.94    8.64</time>
   <energy>
    <i name="alphaZ">    292.45958487 </i>
    <i name="ewald">  30446.64358284 </i>
    <i name="hartreedc"> -42987.83478046 </i>
    <i name="XCdc">    279.96367750 </i>
    <i name="pawpsdc">   4695.12642131 </i>
    <i name="pawaedc">  -3915.43403981 </i>
    <i name="eentropy">     -0.38170940 </i>
    <i name="bandstr">  -1496.90058267 </i>
    <i name="atom">  12010.34264613 </i>
    <i name="e_fr_energy">   -676.01519970 </i>
    <i name="e_wo_entrp">   -675.63349029 </i>
    <i name="e_0_energy">   -675.82434500 </i>
   </energy>
  </scstep>
  <scstep>
   <time name="diag">    3.70    0.82</time>
   <time name="diis">    6.71    3.04</time>
   <time name="orth">    0.12    0.06</time>
   <time name="total">   22.76    6.17</time>
   <energy>
    <i name="e_fr_energy">   -677.86972371 </i>
    <i name="e_wo_entrp">   -677.74038061 </i>
    <i name="e_0_energy">   -677.80505216 </i>
   </energy>
  </scstep>
  <scstep>
   <time name="diag">    3.50    0.78</time>
   <time name="diis">    7.20    3.18</time>
   <time name="orth">    0.12    0.06</time>
   <time name="total">   22.73    6.17</time>
   <energy>
    <i name="e_fr_energy">   -676.08545095 </i>
    <i name="e_wo_entrp">   -675.69070334 </i>
    <i name="e_0_energy">   -675.88807715 </i>
   </energy>
  </scstep>
  <scstep>
   <time name="diag">    3.39    0.78</time>
   <time name="diis">    7.12    3.13</time>
   <time name="orth">    0.12    0.06</time>
   <time name="total">   22.74    6.15</time>
   <energy>
    <i name="e_fr_energy">   -676.04495099 </i>
    <i name="e_wo_entrp">   -675.65594943 </i>
    <i name="e_0_energy">   -675.85045021 </i>
   </energy>
  </scstep>
  <scstep>
   <time name="diag">    3.52    0.78</time>
   <time name="diis">    7.41    3.30</time>
   <time name="orth">    0.12    0.06</time>
   <time name="total">   23.09    6.31</time>
   <energy>
    <i name="e_fr_energy">   -676.02950194 </i>
    <i name="e_wo_entrp">   -675.63445890 </i>
    <i name="e_0_energy">   -675.83198042 </i>
   </energy>
  </scstep>
  <scstep>
   <time name="diag">    3.45    0.78</time>
   <time name="diis">    7.79    3.48</time>
   <time name="orth">    0.12    0.06</time>
   <time name="total">   23.41    6.48</time>
   <energy>
    <i name="e_fr_energy">   -676.03074513 </i>
[...]
       <r>    -6.1790     8.4577    99.2192 </r>
       <r>    -6.1014     8.7845    99.9011 </r>
       <r>    -6.0238    12.4373   100.8665 </r>
       <r>    -5.9462    20.8267   102.4831 </r>
       <r>    -5.8686    31.2054   104.9052 </r>
       <r>    -5.7909    33.2199   107.4837 </r>
       <r>    -5.7133    31.3440   109.9167 </r>
       <r>    -5.6357    28.0769   112.0960 </r>
       <r>    -5.5581    31.9827   114.5785 </r>
       <r>    -5.4805    42.7392   117.8959 </r>
       <r>    -5.4028    44.6391   121.3608 </r>
       <r>    -5.3252    40.8902   124.5347 </r>
       <r>    -5.2476    38.9155   127.5553 </r>
       <r>    -5.1700    35.7227   130.3281 </r>
       <r>    -5.0924    41.4249   133.5435 </r>
       <r>    -5.0147    50.0407   137.4277 </r>
       <r>    -4.9371    36.5752   140.2666 </r>
       <r>    -4.8595    19.8142   141.8046 </r>
       <r>    -4.7819    19.1328   143.2897 </r>
       <r>    -4.7043    14.3468   144.4033 </r>
       <r>    -4.6266     8.2501   145.0437 </r>
       <r>    -4.5490    11.7774   145.9578 </r>
       <r>    -4.4714    18.6510   147.4055 </r>
       <r>    -4.3938    20.9800   149.0340 </r>
       <r>    -4.3162    20.2906   150.6089 </r>
       <r>    -4.2385    17.9510   152.0023 </r>
       <r>    -4.1609    14.5043   153.1281 </r>
       <r>    -4.0833    12.7008   154.1140 </r>
       <r>    -4.0057    13.2940   155.1458 </r>
       <r>    -3.9281    20.0538   156.7024 </r>
       <r>    -3.8504    33.0845   159.2704 </r>
       <r>    -3.7728    31.0418   161.6799 </r>
       <r>    -3.6952    23.1631   163.4778 </r>
       <r>    -3.6176    22.1891   165.2001 </r>
       <r>    -3.5400    16.9431   166.5153 </r>
       <r>    -3.4623    18.0691   167.9178 </r>
       <r>    -3.3847    33.1549   170.4913 </r>
       <r>    -3.3071    47.0443   174.1429 </r>
       <r>    -3.2295    44.1748   177.5717 </r>
       <r>    -3.1519    27.1774   179.6812 </r>
       <r>    -3.0742    21.1961   181.3265 </r>
       <r>    -2.9966    28.3108   183.5239 </r>
       <r>    -2.9190    37.2631   186.4163 </r>
       <r>    -2.8414    44.3885   189.8617 </r>
       <r>    -2.7638    41.6926   193.0979 </r>
       <r>    -2.6861    29.5264   195.3897 </r>
       <r>    -2.6085    24.2076   197.2687 </r>
       <r>    -2.5309    32.1839   199.7669 </r>
       <r>    -2.4533    40.8730   202.9394 </r>
       <r>    -2.3757    32.7712   205.4831 </r>
       <r>    -2.2980    23.3526   207.2957 </r>
       <r>    -2.2204    33.0894   209.8641 </r>
       <r>    -2.1428    34.5978   212.5496 </r>
       <r>    -2.0652    28.6475   214.7732 </r>
       <r>    -1.9876    34.6130   217.4599 </r>
       <r>    -1.9099    39.2375   220.5055 </r>
       <r>    -1.8323    38.2035   223.4709 </r>
       <r>    -1.7547    49.2304   227.2921 </r>
       <r>    -1.6771    63.0302   232.1845 </r>
       <r>    -1.5995    59.0893   236.7711 </r>
       <r>    -1.5218    51.3296   240.7553 </r>
       <r>    -1.4442    50.9864   244.7128 </r>
       <r>    -1.3666    55.1244   248.9916 </r>
       <r>    -1.2890    50.0001   252.8726 </r>
       <r>    -1.2114    40.3718   256.0062 </r>
       <r>    -1.1337    46.7036   259.6314 </r>
       <r>    -1.0561    46.0933   263.2091 </r>
       <r>    -0.9785    39.1521   266.2481 </r>
       <r>    -0.9009    46.2353   269.8369 </r>
       <r>    -0.8233    53.0217   273.9525 </r>
       <r>    -0.7456    46.6339   277.5722 </r>
       <r>    -0.6680    38.8323   280.5863 </r>
       <r>    -0.5904    38.0215   283.5376 </r>
       <r>    -0.5128    41.8098   286.7828 </r>
       <r>    -0.4352    41.5466   290.0077 </r>
       <r>    -0.3575    36.5236   292.8427 </r>
       <r>    -0.2799    32.6970   295.3806 </r>
       <r>    -0.2023    32.7474   297.9225 </r>
       <r>    -0.1247    42.4741   301.2193 </r>
       <r>    -0.0471    50.3630   305.1285 </r>
       <r>     0.0306    59.9895   309.7849 </r>
       <r>     0.1082    69.3762   315.1698 </r>
       <r>     0.1858    70.9585   320.6776 </r>
       <r>     0.2634    61.0136   325.4135 </r>
       <r>     0.3410    48.8375   329.2043 </r>
       <r>     0.4187    45.0828   332.7036 </r>
       <r>     0.4963    43.1007   336.0491 </r>
       <r>     0.5739    36.5302   338.8846 </r>
       <r>     0.6515    27.3116   341.0045 </r>
       <r>     0.7291    24.4404   342.9016 </r>
       <r>     0.8068    25.2904   344.8646 </r>
       <r>     0.8844    24.2917   346.7501 </r>
       <r>     0.9620    18.5934   348.1933 </r>
       <r>     1.0396    14.4943   349.3184 </r>
       <r>     1.1172    16.9059   350.6306 </r>
       <r>     1.1949    16.3657   351.9009 </r>
       <r>     1.2725    15.0854   353.0719 </r>
       <r>     1.3501    14.1126   354.1673 </r>
       <r>     1.4277    12.7578   355.1575 </r>
       <r>     1.5053     9.4685   355.8925 </r>
       <r>     1.5830     5.9452   356.3539 </r>
       <r>     1.6606     5.4861   356.7798 </r>
       <r>     1.7382     8.7493   357.4589 </r>
       <r>     1.8158     9.0719   358.1631 </r>
       <r>     1.8934     6.5092   358.6683 </r>
       <r>     1.9711     7.3568   359.2393 </r>
       <r>     2.0487     9.9315   360.0102 </r>
       <r>     2.1263    12.5360   360.9833 </r>
       <r>     2.2039    19.5331   362.4994 </r>
       <r>     2.2815    29.3560   364.7780 </r>
       <r>     2.3592    43.4603   368.1514 </r>
       <r>     2.4368    64.8559   373.1855 </r>
       <r>     2.5144    79.2599   379.3377 </r>
       <r>     2.5920    80.0731   385.5530 </r>
       <r>     2.6696    84.4227   392.1059 </r>
       <r>     2.7473    88.9361   399.0091 </r>
       <r>     2.8249    68.7797   404.3478 </r>
       <r>     2.9025    35.6412   407.1142 </r>
       <r>     2.9801    10.1196   407.8997 </r>
       <r>     3.0577     1.2351   407.9956 </r>
       <r>     3.1354     0.0561   407.9999 </r>
       <r>     3.2130     0.0009   408.0000 </r>
       <r>     3.2906     0.0000   408.0000 </r>
       <r>     3.3682     0.0000   408.0000 </r>
       <r>     3.4458     0.0000   408.0000 </r>
       <r>     3.5235     0.0000   408.0000 </r>
       <r>     3.6011     0.0000   408.0000 </r>
       <r>     3.6787     0.0000   408.0000 </r>
       <r>     3.7563     0.0000   408.0000 </r>
       <r>     3.8339     0.0000   408.0000 </r>
       <r>     3.9116     0.0000   408.0000 </r>
       <r>     3.9892     0.0001   408.0000 </r>
       <r>     4.0668     0.0066   408.0005 </r>
       <r>     4.1444     0.1476   408.0120 </r>
       <r>     4.2220     1.0864   408.0963 </r>
       <r>     4.2997     2.8999   408.3214 </r>
       <r>     4.3773     4.0211   408.6335 </r>
       <r>     4.4549     5.2592   409.0417 </r>
       <r>     4.5325     5.8062   409.4924 </r>
       <r>     4.6101     5.6628   409.9320 </r>
       <r>     4.6878     6.7931   410.4592 </r>
       <r>     4.7654    10.4624   411.2713 </r>
       <r>     4.8430    12.0608   412.2075 </r>
       <r>     4.9206     7.7822   412.8115 </r>
       <r>     4.9982     5.5887   413.2453 </r>
       <r>     5.0759     6.3393   413.7374 </r>
       <r>     5.1535     4.9670   414.1229 </r>
       <r>     5.2311     4.0593   414.4380 </r>
       <r>     5.3087     4.3267   414.7739 </r>
       <r>     5.3863     5.2688   415.1828 </r>
       <r>     5.4640    13.0116   416.1928 </r>
       <r>     5.5416    24.5163   418.0957 </r>
       <r>     5.6192    24.2408   419.9773 </r>
       <r>     5.6968    17.9638   421.3717 </r>
       <r>     5.7744    19.4746   422.8833 </r>
       <r>     5.8521    20.6687   424.4876 </r>
       <r>     5.9297    23.3049   426.2965 </r>
       <r>     6.0073    30.8162   428.6885 </r>
       <r>     6.0849    27.7067   430.8391 </r>
       <r>     6.1625    18.6108   432.2836 </r>
       <r>     6.2402    14.0287   433.3726 </r>
       <r>     6.3178    14.3820   434.4889 </r>
       <r>     6.3954    20.6755   436.0937 </r>
       <r>     6.4730    29.5218   438.3852 </r>
       <r>     6.5506    37.8259   441.3212 </r>
       <r>     6.6283    42.5108   444.6209 </r>
       <r>     6.7059    35.4358   447.3715 </r>
       <r>     6.7835    29.9186   449.6937 </r>
       <r>     6.8611    31.7814   452.1606 </r>
       <r>     6.9387    35.1054   454.8855 </r>
       <r>     7.0164    34.0730   457.5302 </r>
       <r>     7.0940    40.1317   460.6453 </r>
       <r>     7.1716    52.9458   464.7549 </r>
       <r>     7.2492    59.0622   469.3393 </r>
       <r>     7.3268    51.8293   473.3623 </r>
       <r>     7.4045    37.9161   476.3054 </r>
       <r>     7.4821    29.1647   478.5691 </r>
       <r>     7.5597    20.8936   480.1909 </r>
       <r>     7.6373    11.1948   481.0598 </r>
       <r>     7.7149     6.4463   481.5602 </r>
       <r>     7.7926     4.0076   481.8713 </r>
       <r>     7.8702     1.4381   481.9829 </r>
       <r>     7.9478     0.2096   481.9992 </r>
       <r>     8.0254     0.0107   482.0000 </r>
       <r>     8.1030     0.0002   482.0000 </r>
       <r>     8.1807     0.0000   482.0000 </r>
       <r>     8.2583     0.0000   482.0000 </r>
       <r>     8.3359     0.0000   482.0000 </r>
       <r>     8.4135     0.0000   482.0000 </r>
       <r>     8.4911     0.0000   482.0000 </r>
       <r>     8.5688     0.0000   482.0000 </r>
       <r>     8.6464     0.0000   482.0000 </r>
       <r>     8.7240     0.0000   482.0000 </r>
       <r>     8.8016     0.0000   482.0000 </r>
      </set>
     </set>
    </array>
   </total>
  </dos>
 </calculation>
 <structure name="finalpos" >
  <crystal>
   <varray name="basis" >
    <v>       9.28426200       0.00000000       0.00000000 </v>
    <v>       0.00000000      10.72054200       0.00000000 </v>
    <v>       0.00000000       0.00000000      18.22724100 </v>
   </varray>
   <i name="volume">   1814.19959687 </i>
   <varray name="rec_basis" >
    <v>       0.10770915       0.00000000       0.00000000 </v>
    <v>       0.00000000       0.09327887       0.00000000 </v>
    <v>       0.00000000       0.00000000       0.05486294 </v>
   </varray>
  </crystal>
  <varray name="positions" >
   <v>       0.00000000       0.00000000       0.31213000 </v>
   <v>       0.16666700       0.25000000       0.31213000 </v>
   <v>      -0.00000000       0.33335818       0.43831194 </v>
   <v>       0.16666700       0.08335818       0.43831194 </v>
   <v>       0.00000000       0.16666600       0.03482200 </v>
   <v>       0.16666700       0.41666600       0.03482200 </v>
   <v>       0.00000000       0.33333300       0.17351800 </v>
   <v>       0.16666700       0.08333300       0.17351800 </v>
   <v>       0.33333300       0.00000000       0.31213000 </v>
   <v>       0.50000000       0.25000000       0.31213000 </v>
   <v>       0.33333300       0.33335918       0.43831194 </v>
   <v>       0.50000000       0.08335818       0.43831194 </v>
   <v>       0.33333300       0.16666600       0.03482200 </v>
   <v>       0.50000000       0.41666600       0.03482200 </v>
   <v>       0.33333300       0.33333400       0.17351800 </v>
   <v>       0.50000000       0.08333300       0.17351800 </v>
   <v>       0.66666700       0.00000000       0.31213000 </v>
   <v>       0.83333300       0.25000000       0.31213000 </v>
   <v>       0.66666700       0.33335818       0.43831194 </v>
   <v>       0.83333300       0.08335818       0.43831194 </v>
   <v>       0.66666700       0.16666600       0.03482200 </v>
   <v>       0.83333300       0.41666600       0.03482200 </v>
   <v>       0.66666700       0.33333300       0.17351800 </v>
   <v>       0.83333300       0.08333300       0.17351800 </v>
   <v>       0.00000000       0.50000000       0.31213000 </v>
   <v>       0.16666700       0.75000000       0.31213000 </v>
   <v>      -0.00000000       0.83335818       0.43831194 </v>
   <v>       0.16666700       0.58335818       0.43831194 </v>
   <v>       0.00000000       0.66666600       0.03482200 </v>
   <v>       0.16666700       0.91666600       0.03482200 </v>
   <v>       0.00000000       0.83333300       0.17351800 </v>
   <v>       0.16666700       0.58333300       0.17351800 </v>
   <v>       0.33333300       0.50000000       0.31213000 </v>
   <v>       0.50000000       0.75000000       0.31213000 </v>
   <v>       0.33333300       0.83335818       0.43831194 </v>
   <v>       0.50000000       0.58335818       0.43831194 </v>
   <v>       0.33333300       0.66666600       0.03482200 </v>
   <v>       0.50000000       0.91666600       0.03482200 </v>
   <v>       0.33333300       0.83333300       0.17351800 </v>
   <v>       0.50000000       0.58333300       0.17351800 </v>
   <v>       0.66666700       0.50000000       0.31213000 </v>
   <v>       0.83333300       0.75000000       0.31213000 </v>
   <v>       0.66666700       0.83335818       0.43831194 </v>
   <v>       0.83333300       0.58335818       0.43831194 </v>
   <v>       0.66666700       0.66666600       0.03482200 </v>
   <v>       0.83333300       0.91666600       0.03482200 </v>
   <v>       0.66666700       0.83333300       0.17351800 </v>
   <v>       0.83333300       0.58333300       0.17351800 </v>
   <v>       0.00000000       0.00000000       0.00000000 </v>
   <v>       0.16666700       0.25000000       0.00000000 </v>
   <v>       0.00000000       0.00000000       0.41654900 </v>
   <v>       0.16666700       0.25000000       0.41654900 </v>
   <v>       0.00000000       0.16666600       0.13894900 </v>
   <v>       0.16666700       0.41666600       0.13894900 </v>
   <v>       0.00000000       0.33333300       0.27764900 </v>
   <v>       0.16666700       0.08333300       0.27764900 </v>
   <v>       0.33333300       0.00000000       0.00000000 </v>
   <v>       0.50000000       0.25000000       0.00000000 </v>
   <v>       0.33333300       0.00000000       0.41654900 </v>
   <v>       0.50000000       0.25000000       0.41654900 </v>
   <v>       0.33333300       0.16666600       0.13894900 </v>
   <v>       0.50000000       0.41666600       0.13894900 </v>
   <v>       0.33333300       0.33333400       0.27764900 </v>
   <v>       0.50000000       0.08333300       0.27764900 </v>
   <v>       0.66666700       0.00000000       0.00000000 </v>
   <v>       0.83333300       0.25000000       0.00000000 </v>
   <v>       0.66666700       0.00000000       0.41654900 </v>
   <v>       0.83333300       0.25000000       0.41654900 </v>
   <v>       0.66666700       0.16666600       0.13894900 </v>
   <v>       0.83333300       0.41666600       0.13894900 </v>
   <v>       0.66666700       0.33333300       0.27764900 </v>
   <v>       0.83333300       0.08333300       0.27764900 </v>
   <v>       0.00000000       0.50000000       0.00000000 </v>
   <v>       0.16666700       0.75000000       0.00000000 </v>
   <v>       0.00000000       0.50000000       0.41654900 </v>
   <v>       0.16666700       0.75000000       0.41654900 </v>
   <v>       0.00000000       0.66666600       0.13894900 </v>
   <v>       0.16666700       0.91666600       0.13894900 </v>
   <v>       0.00000000       0.83333300       0.27764900 </v>
   <v>       0.16666700       0.58333300       0.27764900 </v>
   <v>       0.33333300       0.50000000       0.00000000 </v>
   <v>       0.50000000       0.75000000       0.00000000 </v>
   <v>       0.33333300       0.50000000       0.41654900 </v>
   <v>       0.50000000       0.75000000       0.41654900 </v>
   <v>       0.33333300       0.66666600       0.13894900 </v>
   <v>       0.50000000       0.91666600       0.13894900 </v>
   <v>       0.33333300       0.83333300       0.27764900 </v>
   <v>       0.50000000       0.58333300       0.27764900 </v>
   <v>       0.66666700       0.50000000       0.00000000 </v>
   <v>       0.83333300       0.75000000       0.00000000 </v>
   <v>       0.66666700       0.50000000       0.41654900 </v>
   <v>       0.83333300       0.75000000       0.41654900 </v>
   <v>       0.66666700       0.66666600       0.13894900 </v>
   <v>       0.83333300       0.91666600       0.13894900 </v>
   <v>       0.66666700       0.83333300       0.27764900 </v>
   <v>       0.83333300       0.58333300       0.27764900 </v>
  </varray>
  <varray name="selective"  type="logical" >
   <v type="logical" >  F  F  F </v>
   <v type="logical" >  F  F  F </v>
   <v type="logical" >  T  T  T </v>
   <v type="logical" >  T  T  T </v>
   <v type="logical" >  F  F  F </v>
   <v type="logical" >  F  F  F </v>
   <v type="logical" >  F  F  F </v>
   <v type="logical" >  F  F  F </v>
   <v type="logical" >  F  F  F </v>
   <v type="logical" >  F  F  F </v>
   <v type="logical" >  T  T  T </v>
   <v type="logical" >  T  T  T </v>
   <v type="logical" >  F  F  F </v>
   <v type="logical" >  F  F  F </v>
   <v type="logical" >  F  F  F </v>
   <v type="logical" >  F  F  F </v>
   <v type="logical" >  F  F  F </v>
   <v type="logical" >  F  F  F </v>
   <v type="logical" >  T  T  T </v>
   <v type="logical" >  T  T  T </v>
   <v type="logical" >  F  F  F </v>
   <v type="logical" >  F  F  F </v>
   <v type="logical" >  F  F  F </v>
   <v type="logical" >  F  F  F </v>
   <v type="logical" >  F  F  F </v>
   <v type="logical" >  F  F  F </v>
   <v type="logical" >  T  T  T </v>
   <v type="logical" >  T  T  T </v>
   <v type="logical" >  F  F  F </v>
   <v type="logical" >  F  F  F </v>
   <v type="logical" >  F  F  F </v>
   <v type="logical" >  F  F  F </v>
   <v type="logical" >  F  F  F </v>
   <v type="logical" >  F  F  F </v>
   <v type="logical" >  T  T  T </v>
   <v type="logical" >  T  T  T </v>
   <v type="logical" >  F  F  F </v>
   <v type="logical" >  F  F  F </v>
   <v type="logical" >  F  F  F </v>
   <v type="logical" >  F  F  F </v>
   <v type="logical" >  F  F  F </v>
   <v type="logical" >  F  F  F </v>
   <v type="logical" >  T  T  T </v>
   <v type="logical" >  T  T  T </v>
   <v type="logical" >  F  F  F </v>
   <v type="logical" >  F  F  F </v>
   <v type="logical" >  F  F  F </v>
   <v type="logical" >  F  F  F </v>
   <v type="logical" >  F  F  F </v>
   <v type="logical" >  F  F  F </v>
   <v type="logical" >  F  F  F </v>
   <v type="logical" >  F  F  F </v>
   <v type="logical" >  F  F  F </v>
   <v type="logical" >  F  F  F </v>
   <v type="logical" >  F  F  F </v>
   <v type="logical" >  F  F  F </v>
   <v type="logical" >  F  F  F </v>
   <v type="logical" >  F  F  F </v>
   <v type="logical" >  F  F  F </v>
   <v type="logical" >  F  F  F </v>
   <v type="logical" >  F  F  F </v>
   <v type="logical" >  F  F  F </v>
   <v type="logical" >  F  F  F </v>
   <v type="logical" >  F  F  F </v>
   <v type="logical" >  F  F  F </v>
   <v type="logical" >  F  F  F </v>
   <v type="logical" >  F  F  F </v>
   <v type="logical" >  F  F  F </v>
   <v type="logical" >  F  F  F </v>
   <v type="logical" >  F  F  F </v>
   <v type="logical" >  F  F  F </v>
   <v type="logical" >  F  F  F </v>
   <v type="logical" >  F  F  F </v>
   <v type="logical" >  F  F  F </v>
   <v type="logical" >  F  F  F </v>
   <v type="logical" >  F  F  F </v>
   <v type="logical" >  F  F  F </v>
   <v type="logical" >  F  F  F </v>
   <v type="logical" >  F  F  F </v>
   <v type="logical" >  F  F  F </v>
   <v type="logical" >  F  F  F </v>
   <v type="logical" >  F  F  F </v>
   <v type="logical" >  F  F  F </v>
   <v type="logical" >  F  F  F </v>
   <v type="logical" >  F  F  F </v>
   <v type="logical" >  F  F  F </v>
   <v type="logical" >  F  F  F </v>
   <v type="logical" >  F  F  F </v>
   <v type="logical" >  F  F  F </v>
   <v type="logical" >  F  F  F </v>
   <v type="logical" >  F  F  F </v>
   <v type="logical" >  F  F  F </v>
   <v type="logical" >  F  F  F </v>
   <v type="logical" >  F  F  F </v>
   <v type="logical" >  F  F  F </v>
   <v type="logical" >  F  F  F </v>
  </varray>
  <nose>
   <v>      -3.00000000       0.00000000       0.00010000       0.00010000 </v>
  </nose>
 </structure>
</modeling>
