ni3al                                   
           1
     9.284262    0.000000    0.000000
     0.000000   10.720542    0.000000
     0.000000    0.000000   18.227241
   C    Si
    48    48
Direct configuration=     1
   0.00000000  0.00000000  0.31213000
   0.16666700  0.25000000  0.31213000
   0.00000000  0.33333300  0.45137100
   0.16666700  0.08333300  0.45137100
   0.00000000  0.16666600  0.03482200
   0.16666700  0.41666600  0.03482200
   0.00000000  0.33333300  0.17351800
   0.16666700  0.08333300  0.17351800
   0.33333300  0.00000000  0.31213000
   0.50000000  0.25000000  0.31213000
   0.33333300  0.33333400  0.45137100
   0.50000000  0.08333300  0.45137100
   0.33333300  0.16666600  0.03482200
   0.50000000  0.41666600  0.03482200
   0.33333300  0.33333400  0.17351800
   0.50000000  0.08333300  0.17351800
   0.66666700  0.00000000  0.31213000
   0.83333300  0.25000000  0.31213000
   0.66666700  0.33333300  0.45137100
   0.83333300  0.08333300  0.45137100
   0.66666700  0.16666600  0.03482200
   0.83333300  0.41666600  0.03482200
   0.66666700  0.33333300  0.17351800
   0.83333300  0.08333300  0.17351800
   0.00000000  0.50000000  0.31213000
   0.16666700  0.75000000  0.31213000
   0.00000000  0.83333300  0.45137100
   0.16666700  0.58333300  0.45137100
   0.00000000  0.66666600  0.03482200
   0.16666700  0.91666600  0.03482200
   0.00000000  0.83333300  0.17351800
   0.16666700  0.58333300  0.17351800
   0.33333300  0.50000000  0.31213000
   0.50000000  0.75000000  0.31213000
   0.33333300  0.83333300  0.45137100
   0.50000000  0.58333300  0.45137100
   0.33333300  0.66666600  0.03482200
   0.50000000  0.91666600  0.03482200
   0.33333300  0.83333300  0.17351800
   0.50000000  0.58333300  0.17351800
   0.66666700  0.50000000  0.31213000
   0.83333300  0.75000000  0.31213000
   0.66666700  0.83333300  0.45137100
   0.83333300  0.58333300  0.45137100
   0.66666700  0.66666600  0.03482200
   0.83333300  0.91666600  0.03482200
   0.66666700  0.83333300  0.17351800
   0.83333300  0.58333300  0.17351800
   0.00000000  0.00000000  0.00000000
   0.16666700  0.25000000  0.00000000
   0.00000000  0.00000000  0.41654900
   0.16666700  0.25000000  0.41654900
   0.00000000  0.16666600  0.13894900
   0.16666700  0.41666600  0.13894900
   0.00000000  0.33333300  0.27764900
   0.16666700  0.08333300  0.27764900
   0.33333300  0.00000000  0.00000000
   0.50000000  0.25000000  0.00000000
   0.33333300  0.00000000  0.41654900
   0.50000000  0.25000000  0.41654900
   0.33333300  0.16666600  0.13894900
   0.50000000  0.41666600  0.13894900
   0.33333300  0.33333400  0.27764900
   0.50000000  0.08333300  0.27764900
   0.66666700  0.00000000  0.00000000
   0.83333300  0.25000000  0.00000000
   0.66666700  0.00000000  0.41654900
   0.83333300  0.25000000  0.41654900
   0.66666700  0.16666600  0.13894900
   0.83333300  0.41666600  0.13894900
   0.66666700  0.33333300  0.27764900
   0.83333300  0.08333300  0.27764900
   0.00000000  0.50000000  0.00000000
   0.16666700  0.75000000  0.00000000
   0.00000000  0.50000000  0.41654900
   0.16666700  0.75000000  0.41654900
   0.00000000  0.66666600  0.13894900
   0.16666700  0.91666600  0.13894900
   0.00000000  0.83333300  0.27764900
   0.16666700  0.58333300  0.27764900
   0.33333300  0.50000000  0.00000000
   0.50000000  0.75000000  0.00000000
   0.33333300  0.50000000  0.41654900
   0.50000000  0.75000000  0.41654900
   0.33333300  0.66666600  0.13894900
   0.50000000  0.91666600  0.13894900
   0.33333300  0.83333300  0.27764900
   0.50000000  0.58333300  0.27764900
   0.66666700  0.50000000  0.00000000
   0.83333300  0.75000000  0.00000000
   0.66666700  0.50000000  0.41654900
   0.83333300  0.75000000  0.41654900
   0.66666700  0.66666600  0.13894900
   0.83333300  0.91666600  0.13894900
   0.66666700  0.83333300  0.27764900
   0.83333300  0.58333300  0.27764900
Direct configuration=     2
   0.00000000  0.00000000  0.31213000
   0.16666700  0.25000000  0.31213000
  -0.00000000  0.33330462  0.44522553
   0.16666700  0.08330462  0.44522553
   0.00000000  0.16666600  0.03482200
   0.16666700  0.41666600  0.03482200
   0.00000000  0.33333300  0.17351800
   0.16666700  0.08333300  0.17351800
   0.33333300  0.00000000  0.31213000
   0.50000000  0.25000000  0.31213000
   0.33333300  0.33330562  0.44522553
   0.50000000  0.08330462  0.44522553
   0.33333300  0.16666600  0.03482200
   0.50000000  0.41666600  0.03482200
   0.33333300  0.33333400  0.17351800
   0.50000000  0.08333300  0.17351800
   0.66666700  0.00000000  0.31213000
   0.83333300  0.25000000  0.31213000
   0.66666700  0.33330462  0.44522553
   0.83333300  0.08330462  0.44522553
   0.66666700  0.16666600  0.03482200
   0.83333300  0.41666600  0.03482200
   0.66666700  0.33333300  0.17351800
   0.83333300  0.08333300  0.17351800
   0.00000000  0.50000000  0.31213000
   0.16666700  0.75000000  0.31213000
   0.00000000  0.83330462  0.44522553
   0.16666700  0.58330462  0.44522553
   0.00000000  0.66666600  0.03482200
   0.16666700  0.91666600  0.03482200
   0.00000000  0.83333300  0.17351800
   0.16666700  0.58333300  0.17351800
   0.33333300  0.50000000  0.31213000
   0.50000000  0.75000000  0.31213000
   0.33333300  0.83330462  0.44522553
   0.50000000  0.58330462  0.44522553
   0.33333300  0.66666600  0.03482200
   0.50000000  0.91666600  0.03482200
   0.33333300  0.83333300  0.17351800
   0.50000000  0.58333300  0.17351800
   0.66666700  0.50000000  0.31213000
   0.83333300  0.75000000  0.31213000
   0.66666700  0.83330462  0.44522553
   0.83333300  0.58330462  0.44522553
   0.66666700  0.66666600  0.03482200
   0.83333300  0.91666600  0.03482200
   0.66666700  0.83333300  0.17351800
   0.83333300  0.58333300  0.17351800
   0.00000000  0.00000000  0.00000000
   0.16666700  0.25000000  0.00000000
   0.00000000  0.00000000  0.41654900
   0.16666700  0.25000000  0.41654900
   0.00000000  0.16666600  0.13894900
   0.16666700  0.41666600  0.13894900
   0.00000000  0.33333300  0.27764900
   0.16666700  0.08333300  0.27764900
   0.33333300  0.00000000  0.00000000
   0.50000000  0.25000000  0.00000000
   0.33333300  0.00000000  0.41654900
   0.50000000  0.25000000  0.41654900
   0.33333300  0.16666600  0.13894900
   0.50000000  0.41666600  0.13894900
   0.33333300  0.33333400  0.27764900
   0.50000000  0.08333300  0.27764900
   0.66666700  0.00000000  0.00000000
   0.83333300  0.25000000  0.00000000
   0.66666700  0.00000000  0.41654900
   0.83333300  0.25000000  0.41654900
   0.66666700  0.16666600  0.13894900
   0.83333300  0.41666600  0.13894900
   0.66666700  0.33333300  0.27764900
   0.83333300  0.08333300  0.27764900
   0.00000000  0.50000000  0.00000000
   0.16666700  0.75000000  0.00000000
   0.00000000  0.50000000  0.41654900
   0.16666700  0.75000000  0.41654900
   0.00000000  0.66666600  0.13894900
   0.16666700  0.91666600  0.13894900
   0.00000000  0.83333300  0.27764900
   0.16666700  0.58333300  0.27764900
   0.33333300  0.50000000  0.00000000
   0.50000000  0.75000000  0.00000000
   0.33333300  0.50000000  0.41654900
   0.50000000  0.75000000  0.41654900
   0.33333300  0.66666600  0.13894900
   0.50000000  0.91666600  0.13894900
   0.33333300  0.83333300  0.27764900
   0.50000000  0.58333300  0.27764900
   0.66666700  0.50000000  0.00000000
   0.83333300  0.75000000  0.00000000
   0.66666700  0.50000000  0.41654900
   0.83333300  0.75000000  0.41654900
   0.66666700  0.66666600  0.13894900
   0.83333300  0.91666600  0.13894900
   0.66666700  0.83333300  0.27764900
   0.83333300  0.58333300  0.27764900
Direct configuration=     3
   0.00000000  0.00000000  0.31213000
   0.16666700  0.25000000  0.31213000
  -0.00000000  0.33328063  0.44003198
   0.16666700  0.08328063  0.44003198
   0.00000000  0.16666600  0.03482200
   0.16666700  0.41666600  0.03482200
   0.00000000  0.33333300  0.17351800
   0.16666700  0.08333300  0.17351800
   0.33333300  0.00000000  0.31213000
   0.50000000  0.25000000  0.31213000
   0.33333300  0.33328163  0.44003198
   0.50000000  0.08328063  0.44003198
   0.33333300  0.16666600  0.03482200
   0.50000000  0.41666600  0.03482200
   0.33333300  0.33333400  0.17351800
   0.50000000  0.08333300  0.17351800
   0.66666700  0.00000000  0.31213000
   0.83333300  0.25000000  0.31213000
   0.66666700  0.33328063  0.44003198
   0.83333300  0.08328063  0.44003198
   0.66666700  0.16666600  0.03482200
   0.83333300  0.41666600  0.03482200
   0.66666700  0.33333300  0.17351800
   0.83333300  0.08333300  0.17351800
   0.00000000  0.50000000  0.31213000
   0.16666700  0.75000000  0.31213000
   0.00000000  0.83328063  0.44003198
   0.16666700  0.58328063  0.44003198
   0.00000000  0.66666600  0.03482200
   0.16666700  0.91666600  0.03482200
   0.00000000  0.83333300  0.17351800
   0.16666700  0.58333300  0.17351800
   0.33333300  0.50000000  0.31213000
   0.50000000  0.75000000  0.31213000
   0.33333300  0.83328063  0.44003198
   0.50000000  0.58328063  0.44003198
   0.33333300  0.66666600  0.03482200
   0.50000000  0.91666600  0.03482200
   0.33333300  0.83333300  0.17351800
   0.50000000  0.58333300  0.17351800
   0.66666700  0.50000000  0.31213000
   0.83333300  0.75000000  0.31213000
   0.66666700  0.83328063  0.44003198
   0.83333300  0.58328063  0.44003198
   0.66666700  0.66666600  0.03482200
   0.83333300  0.91666600  0.03482200
   0.66666700  0.83333300  0.17351800
   0.83333300  0.58333300  0.17351800
   0.00000000  0.00000000  0.00000000
   0.16666700  0.25000000  0.00000000
   0.00000000  0.00000000  0.41654900
   0.16666700  0.25000000  0.41654900
   0.00000000  0.16666600  0.13894900
   0.16666700  0.41666600  0.13894900
   0.00000000  0.33333300  0.27764900
   0.16666700  0.08333300  0.27764900
   0.33333300  0.00000000  0.00000000
   0.50000000  0.25000000  0.00000000
   0.33333300  0.00000000  0.41654900
   0.50000000  0.25000000  0.41654900
   0.33333300  0.16666600  0.13894900
   0.50000000  0.41666600  0.13894900
   0.33333300  0.33333400  0.27764900
   0.50000000  0.08333300  0.27764900
   0.66666700  0.00000000  0.00000000
   0.83333300  0.25000000  0.00000000
   0.66666700  0.00000000  0.41654900
   0.83333300  0.25000000  0.41654900
   0.66666700  0.16666600  0.13894900
   0.83333300  0.41666600  0.13894900
   0.66666700  0.33333300  0.27764900
   0.83333300  0.08333300  0.27764900
   0.00000000  0.50000000  0.00000000
   0.16666700  0.75000000  0.00000000
   0.00000000  0.50000000  0.41654900
   0.16666700  0.75000000  0.41654900
   0.00000000  0.66666600  0.13894900
   0.16666700  0.91666600  0.13894900
   0.00000000  0.83333300  0.27764900
   0.16666700  0.58333300  0.27764900
   0.33333300  0.50000000  0.00000000
   0.50000000  0.75000000  0.00000000
   0.33333300  0.50000000  0.41654900
   0.50000000  0.75000000  0.41654900
   0.33333300  0.66666600  0.13894900
   0.50000000  0.91666600  0.13894900
   0.33333300  0.83333300  0.27764900
   0.50000000  0.58333300  0.27764900
   0.66666700  0.50000000  0.00000000
   0.83333300  0.75000000  0.00000000
   0.66666700  0.50000000  0.41654900
   0.83333300  0.75000000  0.41654900
   0.66666700  0.66666600  0.13894900
   0.83333300  0.91666600  0.13894900
   0.66666700  0.83333300  0.27764900
   0.83333300  0.58333300  0.27764900
Direct configuration=     4
   0.00000000  0.00000000  0.31213000
   0.16666700  0.25000000  0.31213000
  -0.00000000  0.33327316  0.43841497
   0.16666700  0.08327316  0.43841497
   0.00000000  0.16666600  0.03482200
   0.16666700  0.41666600  0.03482200
   0.00000000  0.33333300  0.17351800
   0.16666700  0.08333300  0.17351800
   0.33333300  0.00000000  0.31213000
   0.50000000  0.25000000  0.31213000
   0.33333300  0.33327416  0.43841497
   0.50000000  0.08327316  0.43841497
   0.33333300  0.16666600  0.03482200
   0.50000000  0.41666600  0.03482200
   0.33333300  0.33333400  0.17351800
   0.50000000  0.08333300  0.17351800
   0.66666700  0.00000000  0.31213000
   0.83333300  0.25000000  0.31213000
   0.66666700  0.33327316  0.43841497
   0.83333300  0.08327316  0.43841497
   0.66666700  0.16666600  0.03482200
   0.83333300  0.41666600  0.03482200
   0.66666700  0.33333300  0.17351800
   0.83333300  0.08333300  0.17351800
   0.00000000  0.50000000  0.31213000
   0.16666700  0.75000000  0.31213000
   0.00000000  0.83327316  0.43841497
   0.16666700  0.58327316  0.43841497
   0.00000000  0.66666600  0.03482200
   0.16666700  0.91666600  0.03482200
   0.00000000  0.83333300  0.17351800
   0.16666700  0.58333300  0.17351800
   0.33333300  0.50000000  0.31213000
   0.50000000  0.75000000  0.31213000
   0.33333300  0.83327316  0.43841497
   0.50000000  0.58327316  0.43841497
   0.33333300  0.66666600  0.03482200
   0.50000000  0.91666600  0.03482200
   0.33333300  0.83333300  0.17351800
   0.50000000  0.58333300  0.17351800
   0.66666700  0.50000000  0.31213000
   0.83333300  0.75000000  0.31213000
   0.66666700  0.83327316  0.43841497
   0.83333300  0.58327316  0.43841497
   0.66666700  0.66666600  0.03482200
   0.83333300  0.91666600  0.03482200
   0.66666700  0.83333300  0.17351800
   0.83333300  0.58333300  0.17351800
   0.00000000  0.00000000  0.00000000
   0.16666700  0.25000000  0.00000000
   0.00000000  0.00000000  0.41654900
   0.16666700  0.25000000  0.41654900
   0.00000000  0.16666600  0.13894900
   0.16666700  0.41666600  0.13894900
   0.00000000  0.33333300  0.27764900
   0.16666700  0.08333300  0.27764900
   0.33333300  0.00000000  0.00000000
   0.50000000  0.25000000  0.00000000
   0.33333300  0.00000000  0.41654900
   0.50000000  0.25000000  0.41654900
   0.33333300  0.16666600  0.13894900
   0.50000000  0.41666600  0.13894900
   0.33333300  0.33333400  0.27764900
   0.50000000  0.08333300  0.27764900
   0.66666700  0.00000000  0.00000000
   0.83333300  0.25000000  0.00000000
   0.66666700  0.00000000  0.41654900
   0.83333300  0.25000000  0.41654900
   0.66666700  0.16666600  0.13894900
   0.83333300  0.41666600  0.13894900
   0.66666700  0.33333300  0.27764900
   0.83333300  0.08333300  0.27764900
   0.00000000  0.50000000  0.00000000
   0.16666700  0.75000000  0.00000000
   0.00000000  0.50000000  0.41654900
   0.16666700  0.75000000  0.41654900
   0.00000000  0.66666600  0.13894900
   0.16666700  0.91666600  0.13894900
   0.00000000  0.83333300  0.27764900
   0.16666700  0.58333300  0.27764900
   0.33333300  0.50000000  0.00000000
   0.50000000  0.75000000  0.00000000
   0.33333300  0.50000000  0.41654900
   0.50000000  0.75000000  0.41654900
   0.33333300  0.66666600  0.13894900
   0.50000000  0.91666600  0.13894900
   0.33333300  0.83333300  0.27764900
   0.50000000  0.58333300  0.27764900
   0.66666700  0.50000000  0.00000000
   0.83333300  0.75000000  0.00000000
   0.66666700  0.50000000  0.41654900
   0.83333300  0.75000000  0.41654900
   0.66666700  0.66666600  0.13894900
   0.83333300  0.91666600  0.13894900
   0.66666700  0.83333300  0.27764900
   0.83333300  0.58333300  0.27764900
Direct configuration=     5
   0.00000000  0.00000000  0.31213000
   0.16666700  0.25000000  0.31213000
  -0.00000000  0.33327267  0.43830996
   0.16666700  0.08327267  0.43830996
   0.00000000  0.16666600  0.03482200
   0.16666700  0.41666600  0.03482200
   0.00000000  0.33333300  0.17351800
   0.16666700  0.08333300  0.17351800
   0.33333300  0.00000000  0.31213000
   0.50000000  0.25000000  0.31213000
   0.33333300  0.33327367  0.43830996
   0.50000000  0.08327267  0.43830996
   0.33333300  0.16666600  0.03482200
   0.50000000  0.41666600  0.03482200
   0.33333300  0.33333400  0.17351800
   0.50000000  0.08333300  0.17351800
   0.66666700  0.00000000  0.31213000
   0.83333300  0.25000000  0.31213000
   0.66666700  0.33327267  0.43830996
   0.83333300  0.08327267  0.43830996
   0.66666700  0.16666600  0.03482200
   0.83333300  0.41666600  0.03482200
   0.66666700  0.33333300  0.17351800
   0.83333300  0.08333300  0.17351800
   0.00000000  0.50000000  0.31213000
   0.16666700  0.75000000  0.31213000
   0.00000000  0.83327267  0.43830996
   0.16666700  0.58327267  0.43830996
   0.00000000  0.66666600  0.03482200
   0.16666700  0.91666600  0.03482200
   0.00000000  0.83333300  0.17351800
   0.16666700  0.58333300  0.17351800
   0.33333300  0.50000000  0.31213000
   0.50000000  0.75000000  0.31213000
   0.33333300  0.83327267  0.43830996
   0.50000000  0.58327267  0.43830996
   0.33333300  0.66666600  0.03482200
   0.50000000  0.91666600  0.03482200
   0.33333300  0.83333300  0.17351800
   0.50000000  0.58333300  0.17351800
   0.66666700  0.50000000  0.31213000
   0.83333300  0.75000000  0.31213000
   0.66666700  0.83327267  0.43830996
   0.83333300  0.58327267  0.43830996
   0.66666700  0.66666600  0.03482200
   0.83333300  0.91666600  0.03482200
   0.66666700  0.83333300  0.17351800
   0.83333300  0.58333300  0.17351800
   0.00000000  0.00000000  0.00000000
   0.16666700  0.25000000  0.00000000
   0.00000000  0.00000000  0.41654900
   0.16666700  0.25000000  0.41654900
   0.00000000  0.16666600  0.13894900
   0.16666700  0.41666600  0.13894900
   0.00000000  0.33333300  0.27764900
   0.16666700  0.08333300  0.27764900
   0.33333300  0.00000000  0.00000000
   0.50000000  0.25000000  0.00000000
   0.33333300  0.00000000  0.41654900
   0.50000000  0.25000000  0.41654900
   0.33333300  0.16666600  0.13894900
   0.50000000  0.41666600  0.13894900
   0.33333300  0.33333400  0.27764900
   0.50000000  0.08333300  0.27764900
   0.66666700  0.00000000  0.00000000
   0.83333300  0.25000000  0.00000000
   0.66666700  0.00000000  0.41654900
   0.83333300  0.25000000  0.41654900
   0.66666700  0.16666600  0.13894900
   0.83333300  0.41666600  0.13894900
   0.66666700  0.33333300  0.27764900
   0.83333300  0.08333300  0.27764900
   0.00000000  0.50000000  0.00000000
   0.16666700  0.75000000  0.00000000
   0.00000000  0.50000000  0.41654900
   0.16666700  0.75000000  0.41654900
   0.00000000  0.66666600  0.13894900
   0.16666700  0.91666600  0.13894900
   0.00000000  0.83333300  0.27764900
   0.16666700  0.58333300  0.27764900
   0.33333300  0.50000000  0.00000000
   0.50000000  0.75000000  0.00000000
   0.33333300  0.50000000  0.41654900
   0.50000000  0.75000000  0.41654900
   0.33333300  0.66666600  0.13894900
   0.50000000  0.91666600  0.13894900
   0.33333300  0.83333300  0.27764900
   0.50000000  0.58333300  0.27764900
   0.66666700  0.50000000  0.00000000
   0.83333300  0.75000000  0.00000000
   0.66666700  0.50000000  0.41654900
   0.83333300  0.75000000  0.41654900
   0.66666700  0.66666600  0.13894900
   0.83333300  0.91666600  0.13894900
   0.66666700  0.83333300  0.27764900
   0.83333300  0.58333300  0.27764900
Direct configuration=     6
   0.00000000  0.00000000  0.31213000
   0.16666700  0.25000000  0.31213000
  -0.00000000  0.33327268  0.43831214
   0.16666700  0.08327268  0.43831214
   0.00000000  0.16666600  0.03482200
   0.16666700  0.41666600  0.03482200
   0.00000000  0.33333300  0.17351800
   0.16666700  0.08333300  0.17351800
   0.33333300  0.00000000  0.31213000
   0.50000000  0.25000000  0.31213000
   0.33333300  0.33327368  0.43831214
   0.50000000  0.08327268  0.43831214
   0.33333300  0.16666600  0.03482200
   0.50000000  0.41666600  0.03482200
   0.33333300  0.33333400  0.17351800
   0.50000000  0.08333300  0.17351800
   0.66666700  0.00000000  0.31213000
   0.83333300  0.25000000  0.31213000
   0.66666700  0.33327268  0.43831214
   0.83333300  0.08327268  0.43831214
   0.66666700  0.16666600  0.03482200
   0.83333300  0.41666600  0.03482200
   0.66666700  0.33333300  0.17351800
   0.83333300  0.08333300  0.17351800
   0.00000000  0.50000000  0.31213000
   0.16666700  0.75000000  0.31213000
   0.00000000  0.83327268  0.43831214
   0.16666700  0.58327268  0.43831214
   0.00000000  0.66666600  0.03482200
   0.16666700  0.91666600  0.03482200
   0.00000000  0.83333300  0.17351800
   0.16666700  0.58333300  0.17351800
   0.33333300  0.50000000  0.31213000
   0.50000000  0.75000000  0.31213000
   0.33333300  0.83327268  0.43831214
   0.50000000  0.58327268  0.43831214
   0.33333300  0.66666600  0.03482200
   0.50000000  0.91666600  0.03482200
   0.33333300  0.83333300  0.17351800
   0.50000000  0.58333300  0.17351800
   0.66666700  0.50000000  0.31213000
   0.83333300  0.75000000  0.31213000
   0.66666700  0.83327268  0.43831214
   0.83333300  0.58327268  0.43831214
   0.66666700  0.66666600  0.03482200
   0.83333300  0.91666600  0.03482200
   0.66666700  0.83333300  0.17351800
   0.83333300  0.58333300  0.17351800
   0.00000000  0.00000000  0.00000000
   0.16666700  0.25000000  0.00000000
   0.00000000  0.00000000  0.41654900
   0.16666700  0.25000000  0.41654900
   0.00000000  0.16666600  0.13894900
   0.16666700  0.41666600  0.13894900
   0.00000000  0.33333300  0.27764900
   0.16666700  0.08333300  0.27764900
   0.33333300  0.00000000  0.00000000
   0.50000000  0.25000000  0.00000000
   0.33333300  0.00000000  0.41654900
   0.50000000  0.25000000  0.41654900
   0.33333300  0.16666600  0.13894900
   0.50000000  0.41666600  0.13894900
   0.33333300  0.33333400  0.27764900
   0.50000000  0.08333300  0.27764900
   0.66666700  0.00000000  0.00000000
   0.83333300  0.25000000  0.00000000
   0.66666700  0.00000000  0.41654900
   0.83333300  0.25000000  0.41654900
   0.66666700  0.16666600  0.13894900
   0.83333300  0.41666600  0.13894900
   0.66666700  0.33333300  0.27764900
   0.83333300  0.08333300  0.27764900
   0.00000000  0.50000000  0.00000000
   0.16666700  0.75000000  0.00000000
   0.00000000  0.50000000  0.41654900
   0.16666700  0.75000000  0.41654900
   0.00000000  0.66666600  0.13894900
   0.16666700  0.91666600  0.13894900
   0.00000000  0.83333300  0.27764900
   0.16666700  0.58333300  0.27764900
   0.33333300  0.50000000  0.00000000
   0.50000000  0.75000000  0.00000000
   0.33333300  0.50000000  0.41654900
   0.50000000  0.75000000  0.41654900
   0.33333300  0.66666600  0.13894900
   0.50000000  0.91666600  0.13894900
   0.33333300  0.83333300  0.27764900
   0.50000000  0.58333300  0.27764900
   0.66666700  0.50000000  0.00000000
   0.83333300  0.75000000  0.00000000
   0.66666700  0.50000000  0.41654900
   0.83333300  0.75000000  0.41654900
   0.66666700  0.66666600  0.13894900
   0.83333300  0.91666600  0.13894900
   0.66666700  0.83333300  0.27764900
   0.83333300  0.58333300  0.27764900
Direct configuration=     7
   0.00000000  0.00000000  0.31213000
   0.16666700  0.25000000  0.31213000
  -0.00000000  0.33327269  0.43831295
   0.16666700  0.08327269  0.43831295
   0.00000000  0.16666600  0.03482200
   0.16666700  0.41666600  0.03482200
   0.00000000  0.33333300  0.17351800
   0.16666700  0.08333300  0.17351800
   0.33333300  0.00000000  0.31213000
   0.50000000  0.25000000  0.31213000
   0.33333300  0.33327369  0.43831295
   0.50000000  0.08327269  0.43831295
   0.33333300  0.16666600  0.03482200
   0.50000000  0.41666600  0.03482200
   0.33333300  0.33333400  0.17351800
   0.50000000  0.08333300  0.17351800
   0.66666700  0.00000000  0.31213000
   0.83333300  0.25000000  0.31213000
   0.66666700  0.33327269  0.43831295
   0.83333300  0.08327269  0.43831295
   0.66666700  0.16666600  0.03482200
   0.83333300  0.41666600  0.03482200
   0.66666700  0.33333300  0.17351800
   0.83333300  0.08333300  0.17351800
   0.00000000  0.50000000  0.31213000
   0.16666700  0.75000000  0.31213000
   0.00000000  0.83327269  0.43831295
   0.16666700  0.58327269  0.43831295
   0.00000000  0.66666600  0.03482200
   0.16666700  0.91666600  0.03482200
   0.00000000  0.83333300  0.17351800
   0.16666700  0.58333300  0.17351800
   0.33333300  0.50000000  0.31213000
   0.50000000  0.75000000  0.31213000
   0.33333300  0.83327269  0.43831295
   0.50000000  0.58327269  0.43831295
   0.33333300  0.66666600  0.03482200
   0.50000000  0.91666600  0.03482200
   0.33333300  0.83333300  0.17351800
   0.50000000  0.58333300  0.17351800
   0.66666700  0.50000000  0.31213000
   0.83333300  0.75000000  0.31213000
   0.66666700  0.83327269  0.43831295
   0.83333300  0.58327269  0.43831295
   0.66666700  0.66666600  0.03482200
   0.83333300  0.91666600  0.03482200
   0.66666700  0.83333300  0.17351800
   0.83333300  0.58333300  0.17351800
   0.00000000  0.00000000  0.00000000
   0.16666700  0.25000000  0.00000000
   0.00000000  0.00000000  0.41654900
   0.16666700  0.25000000  0.41654900
   0.00000000  0.16666600  0.13894900
   0.16666700  0.41666600  0.13894900
   0.00000000  0.33333300  0.27764900
   0.16666700  0.08333300  0.27764900
   0.33333300  0.00000000  0.00000000
   0.50000000  0.25000000  0.00000000
   0.33333300  0.00000000  0.41654900
   0.50000000  0.25000000  0.41654900
   0.33333300  0.16666600  0.13894900
   0.50000000  0.41666600  0.13894900
   0.33333300  0.33333400  0.27764900
   0.50000000  0.08333300  0.27764900
   0.66666700  0.00000000  0.00000000
   0.83333300  0.25000000  0.00000000
   0.66666700  0.00000000  0.41654900
   0.83333300  0.25000000  0.41654900
   0.66666700  0.16666600  0.13894900
   0.83333300  0.41666600  0.13894900
   0.66666700  0.33333300  0.27764900
   0.83333300  0.08333300  0.27764900
   0.00000000  0.50000000  0.00000000
   0.16666700  0.75000000  0.00000000
   0.00000000  0.50000000  0.41654900
   0.16666700  0.75000000  0.41654900
   0.00000000  0.66666600  0.13894900
   0.16666700  0.91666600  0.13894900
   0.00000000  0.83333300  0.27764900
   0.16666700  0.58333300  0.27764900
   0.33333300  0.50000000  0.00000000
   0.50000000  0.75000000  0.00000000
   0.33333300  0.50000000  0.41654900
   0.50000000  0.75000000  0.41654900
   0.33333300  0.66666600  0.13894900
   0.50000000  0.91666600  0.13894900
   0.33333300  0.83333300  0.27764900
   0.50000000  0.58333300  0.27764900
   0.66666700  0.50000000  0.00000000
   0.83333300  0.75000000  0.00000000
   0.66666700  0.50000000  0.41654900
   0.83333300  0.75000000  0.41654900
   0.66666700  0.66666600  0.13894900
   0.83333300  0.91666600  0.13894900
   0.66666700  0.83333300  0.27764900
   0.83333300  0.58333300  0.27764900
Direct configuration=     8
   0.00000000  0.00000000  0.31213000
   0.16666700  0.25000000  0.31213000
  -0.00000000  0.33327269  0.43831270
   0.16666700  0.08327269  0.43831270
   0.00000000  0.16666600  0.03482200
   0.16666700  0.41666600  0.03482200
   0.00000000  0.33333300  0.17351800
   0.16666700  0.08333300  0.17351800
   0.33333300  0.00000000  0.31213000
   0.50000000  0.25000000  0.31213000
   0.33333300  0.33327369  0.43831270
   0.50000000  0.08327269  0.43831270
   0.33333300  0.16666600  0.03482200
   0.50000000  0.41666600  0.03482200
   0.33333300  0.33333400  0.17351800
   0.50000000  0.08333300  0.17351800
   0.66666700  0.00000000  0.31213000
   0.83333300  0.25000000  0.31213000
   0.66666700  0.33327269  0.43831270
   0.83333300  0.08327269  0.43831270
   0.66666700  0.16666600  0.03482200
   0.83333300  0.41666600  0.03482200
   0.66666700  0.33333300  0.17351800
   0.83333300  0.08333300  0.17351800
   0.00000000  0.50000000  0.31213000
   0.16666700  0.75000000  0.31213000
   0.00000000  0.83327269  0.43831270
   0.16666700  0.58327269  0.43831270
   0.00000000  0.66666600  0.03482200
   0.16666700  0.91666600  0.03482200
   0.00000000  0.83333300  0.17351800
   0.16666700  0.58333300  0.17351800
   0.33333300  0.50000000  0.31213000
   0.50000000  0.75000000  0.31213000
   0.33333300  0.83327269  0.43831270
   0.50000000  0.58327269  0.43831270
   0.33333300  0.66666600  0.03482200
   0.50000000  0.91666600  0.03482200
   0.33333300  0.83333300  0.17351800
   0.50000000  0.58333300  0.17351800
   0.66666700  0.50000000  0.31213000
   0.83333300  0.75000000  0.31213000
   0.66666700  0.83327269  0.43831270
   0.83333300  0.58327269  0.43831270
   0.66666700  0.66666600  0.03482200
   0.83333300  0.91666600  0.03482200
   0.66666700  0.83333300  0.17351800
   0.83333300  0.58333300  0.17351800
   0.00000000  0.00000000  0.00000000
   0.16666700  0.25000000  0.00000000
   0.00000000  0.00000000  0.41654900
   0.16666700  0.25000000  0.41654900
   0.00000000  0.16666600  0.13894900
   0.16666700  0.41666600  0.13894900
   0.00000000  0.33333300  0.27764900
   0.16666700  0.08333300  0.27764900
   0.33333300  0.00000000  0.00000000
   0.50000000  0.25000000  0.00000000
   0.33333300  0.00000000  0.41654900
   0.50000000  0.25000000  0.41654900
   0.33333300  0.16666600  0.13894900
   0.50000000  0.41666600  0.13894900
   0.33333300  0.33333400  0.27764900
   0.50000000  0.08333300  0.27764900
   0.66666700  0.00000000  0.00000000
   0.83333300  0.25000000  0.00000000
   0.66666700  0.00000000  0.41654900
   0.83333300  0.25000000  0.41654900
   0.66666700  0.16666600  0.13894900
   0.83333300  0.41666600  0.13894900
   0.66666700  0.33333300  0.27764900
   0.83333300  0.08333300  0.27764900
   0.00000000  0.50000000  0.00000000
   0.16666700  0.75000000  0.00000000
   0.00000000  0.50000000  0.41654900
   0.16666700  0.75000000  0.41654900
   0.00000000  0.66666600  0.13894900
   0.16666700  0.91666600  0.13894900
   0.00000000  0.83333300  0.27764900
   0.16666700  0.58333300  0.27764900
   0.33333300  0.50000000  0.00000000
   0.50000000  0.75000000  0.00000000
   0.33333300  0.50000000  0.41654900
   0.50000000  0.75000000  0.41654900
   0.33333300  0.66666600  0.13894900
   0.50000000  0.91666600  0.13894900
   0.33333300  0.83333300  0.27764900
   0.50000000  0.58333300  0.27764900
   0.66666700  0.50000000  0.00000000
   0.83333300  0.75000000  0.00000000
   0.66666700  0.50000000  0.41654900
   0.83333300  0.75000000  0.41654900
   0.66666700  0.66666600  0.13894900
   0.83333300  0.91666600  0.13894900
   0.66666700  0.83333300  0.27764900
   0.83333300  0.58333300  0.27764900
Direct configuration=     9
   0.00000000  0.00000000  0.31213000
   0.16666700  0.25000000  0.31213000
  -0.00000000  0.33327269  0.43831242
   0.16666700  0.08327269  0.43831242
   0.00000000  0.16666600  0.03482200
   0.16666700  0.41666600  0.03482200
   0.00000000  0.33333300  0.17351800
   0.16666700  0.08333300  0.17351800
   0.33333300  0.00000000  0.31213000