  12  12   0   0
  0.1031381E+02  0.3076621E-09  0.3076621E-09  0.1509808E-08  0.5000000E-15
  1.000000000000000E-004
  CAR 
 ni3al                                   
     16.29109165     -8.46916897  301      8.45098725      1.00000000
     -8.469  0.0000E+00  0.0000E+00
     -8.387  0.0000E+00  0.0000E+00
     -8.304  0.0000E+00  0.0000E+00
     -8.222  0.0000E+00  0.0000E+00
     -8.139  0.0000E+00  0.0000E+00
     -8.056  0.0000E+00  0.0000E+00
     -7.974  0.0000E+00  0.0000E+00
     -7.891  0.3084E-18  0.2545E-19
     -7.809  0.1639E-14  0.1353E-15
     -7.726  0.2387E-11  0.1971E-12
     -7.644  0.9926E-09  0.8212E-10
     -7.561  0.1237E-06  0.1029E-07
     -7.479  0.4911E-05  0.4156E-06
     -7.396  0.6772E-04  0.6005E-05
     -7.314  0.3674E-03  0.3633E-04
     -7.231  0.9320E-03  0.1132E-03
     -7.149  0.1427E-02  0.2310E-03
     -7.066  0.1864E-02  0.3848E-03
     -6.984  0.2279E-02  0.5729E-03
     -6.901  0.2307E-02  0.7633E-03
     -6.818  0.2711E-02  0.9870E-03
     -6.736  0.3090E-02  0.1242E-02
     -6.653  0.3049E-02  0.1494E-02
     -6.571  0.3511E-02  0.1783E-02
     -6.488  0.3618E-02  0.2082E-02
     -6.406  0.3335E-02  0.2357E-02
     -6.323  0.4063E-02  0.2693E-02
     -6.241  0.4595E-02  0.3072E-02
     -6.158  0.4293E-02  0.3426E-02
     -6.076  0.4427E-02  0.3792E-02
     -5.993  0.4361E-02  0.4152E-02
     -5.911  0.4689E-02  0.4539E-02
     -5.828  0.5153E-02  0.4964E-02
     -5.746  0.5429E-02  0.5412E-02
     -5.663  0.5888E-02  0.5898E-02
     -5.580  0.5220E-02  0.6329E-02
     -5.498  0.4890E-02  0.6732E-02
     -5.415  0.6213E-02  0.7245E-02
     -5.333  0.6471E-02  0.7779E-02
     -5.250  0.6189E-02  0.8290E-02
     -5.168  0.6057E-02  0.8790E-02
     -5.085  0.6073E-02  0.9291E-02
     -5.003  0.7424E-02  0.9904E-02
     -4.920  0.7816E-02  0.1055E-01
     -4.838  0.7276E-02  0.1115E-01
     -4.755  0.6363E-02  0.1167E-01
     -4.673  0.6302E-02  0.1219E-01
     -4.590  0.8428E-02  0.1289E-01
     -4.508  0.9557E-02  0.1368E-01
     -4.425  0.8749E-02  0.1440E-01
     -4.342  0.8226E-02  0.1508E-01
     -4.260  0.8120E-02  0.1575E-01
     -4.177  0.9210E-02  0.1651E-01
     -4.095  0.1012E-01  0.1735E-01
     -4.012  0.1113E-01  0.1826E-01
     -3.930  0.1188E-01  0.1925E-01
     -3.847  0.1172E-01  0.2021E-01
     -3.765  0.1190E-01  0.2120E-01
     -3.682  0.1272E-01  0.2224E-01
     -3.600  0.1285E-01  0.2331E-01
     -3.517  0.1148E-01  0.2425E-01
     -3.435  0.1178E-01  0.2523E-01
     -3.352  0.1257E-01  0.2626E-01
     -3.270  0.1173E-01  0.2723E-01
     -3.187  0.1135E-01  0.2817E-01
     -3.104  0.1174E-01  0.2914E-01
     -3.022  0.1181E-01  0.3011E-01
     -2.939  0.1142E-01  0.3105E-01
     -2.857  0.1091E-01  0.3195E-01
     -2.774  0.1129E-01  0.3289E-01
     -2.692  0.1249E-01  0.3392E-01
     -2.609  0.1313E-01  0.3500E-01
     -2.527  0.1345E-01  0.3611E-01
     -2.444  0.1490E-01  0.3734E-01
     -2.362  0.1424E-01  0.3852E-01
     -2.279  0.1035E-01  0.3937E-01
     -2.197  0.5482E-02  0.3982E-01
     -2.114  0.1805E-02  0.3997E-01
     -2.032  0.3161E-03  0.4000E-01
     -1.949  0.2281E-04  0.4000E-01
     -1.866  0.5438E-06  0.4000E-01
     -1.784  0.3817E-08  0.4000E-01
     -1.701  0.7485E-11  0.4000E-01
     -1.619  0.3996E-14  0.4000E-01
     -1.536  0.6101E-18  0.4000E-01
     -1.454  0.0000E+00  0.4000E-01
     -1.371  0.0000E+00  0.4000E-01
     -1.289  0.0000E+00  0.4000E-01
     -1.206  0.0000E+00  0.4000E-01
     -1.124  0.0000E+00  0.4000E-01
     -1.041  0.1318E-17  0.4000E-01
     -0.959  0.5811E-14  0.4000E-01
     -0.876  0.7007E-11  0.4000E-01
     -0.793  0.2397E-08  0.4000E-01
     -0.711  0.2401E-06  0.4000E-01
     -0.628  0.7363E-05  0.4000E-01
     -0.546  0.7713E-04  0.4001E-01
     -0.463  0.3710E-03  0.4004E-01
     -0.381  0.1148E-02  0.4013E-01
     -0.298  0.2423E-02  0.4033E-01
     -0.216  0.3776E-02  0.4064E-01
     -0.133  0.4629E-02  0.4103E-01
     -0.051  0.6056E-02  0.4153E-01
      0.032  0.7038E-02  0.4211E-01
      0.114  0.7107E-02  0.4269E-01
      0.197  0.7645E-02  0.4332E-01
      0.279  0.8553E-02  0.4403E-01
      0.362  0.1032E-01  0.4488E-01
      0.445  0.1302E-01  0.4596E-01
      0.527  0.1490E-01  0.4719E-01
      0.610  0.1515E-01  0.4844E-01
      0.692  0.1751E-01  0.4988E-01
      0.775  0.2057E-01  0.5158E-01
      0.857  0.2160E-01  0.5336E-01
      0.940  0.1982E-01  0.5500E-01
      1.022  0.1625E-01  0.5634E-01
      1.105  0.1513E-01  0.5759E-01
      1.187  0.1460E-01  0.5879E-01
      1.270  0.1253E-01  0.5983E-01
      1.352  0.1226E-01  0.6084E-01
      1.435  0.1329E-01  0.6194E-01
      1.517  0.1107E-01  0.6285E-01
      1.600  0.7319E-02  0.6346E-01
      1.683  0.6378E-02  0.6398E-01
      1.765  0.7808E-02  0.6463E-01
      1.848  0.8558E-02  0.6533E-01
      1.930  0.7710E-02  0.6597E-01
      2.013  0.7798E-02  0.6661E-01
      2.095  0.9279E-02  0.6738E-01
      2.178  0.1056E-01  0.6825E-01
      2.260  0.8516E-02  0.6895E-01
      2.343  0.7076E-02  0.6954E-01
      2.425  0.8039E-02  0.7020E-01
      2.508  0.9160E-02  0.7096E-01
      2.590  0.8650E-02  0.7167E-01
      2.673  0.8451E-02  0.7237E-01
      2.755  0.1071E-01  0.7325E-01
      2.838  0.1299E-01  0.7432E-01
      2.921  0.1324E-01  0.7542E-01
      3.003  0.1322E-01  0.7651E-01
      3.086  0.1374E-01  0.7764E-01
      3.168  0.1476E-01  0.7886E-01
      3.251  0.1404E-01  0.8002E-01
      3.333  0.1306E-01  0.8110E-01
      3.416  0.1421E-01  0.8227E-01
      3.498  0.1489E-01  0.8350E-01
      3.581  0.1459E-01  0.8470E-01
      3.663  0.1403E-01  0.8586E-01
      3.746  0.1292E-01  0.8693E-01
      3.828  0.1331E-01  0.8802E-01
      3.911  0.1548E-01  0.8930E-01
      3.993  0.1624E-01  0.9064E-01
      4.076  0.1487E-01  0.9187E-01
      4.159  0.1480E-01  0.9309E-01
      4.241  0.1631E-01  0.9444E-01
      4.324  0.1761E-01  0.9589E-01
      4.406  0.1698E-01  0.9729E-01
      4.489  0.1502E-01  0.9853E-01
      4.571  0.1654E-01  0.9990E-01
      4.654  0.2026E-01  0.1016E+00
      4.736  0.2069E-01  0.1033E+00
      4.819  0.2063E-01  0.1050E+00
      4.901  0.2153E-01  0.1068E+00
      4.984  0.2023E-01  0.1084E+00
      5.066  0.1857E-01  0.1100E+00
      5.149  0.1958E-01  0.1116E+00
      5.232  0.1906E-01  0.1131E+00
      5.314  0.1916E-01  0.1147E+00
      5.397  0.2196E-01  0.1165E+00
      5.479  0.2263E-01  0.1184E+00
      5.562  0.2179E-01  0.1202E+00
      5.644  0.2185E-01  0.1220E+00
      5.727  0.2393E-01  0.1240E+00
      5.809  0.2482E-01  0.1260E+00
      5.892  0.2208E-01  0.1279E+00
      5.974  0.1904E-01  0.1294E+00
      6.057  0.2054E-01  0.1311E+00
      6.139  0.2282E-01  0.1330E+00
      6.222  0.2205E-01  0.1348E+00
      6.304  0.2308E-01  0.1367E+00
      6.387  0.2454E-01  0.1388E+00
      6.470  0.2452E-01  0.1408E+00
      6.552  0.2377E-01  0.1427E+00
      6.635  0.2311E-01  0.1447E+00
      6.717  0.2191E-01  0.1465E+00
      6.800  0.2048E-01  0.1481E+00
      6.882  0.1861E-01  0.1497E+00
      6.965  0.1659E-01  0.1511E+00
      7.047  0.1494E-01  0.1523E+00
      7.130  0.1297E-01  0.1534E+00
      7.212  0.1187E-01  0.1543E+00
      7.295  0.1146E-01  0.1553E+00
      7.377  0.9927E-02  0.1561E+00
      7.460  0.8982E-02  0.1568E+00
      7.542  0.8891E-02  0.1576E+00
      7.625  0.7780E-02  0.1582E+00
      7.708  0.6694E-02  0.1588E+00
      7.790  0.5727E-02  0.1592E+00
      7.873  0.4563E-02  0.1596E+00
      7.955  0.2972E-02  0.1599E+00
      8.038  0.1289E-02  0.1600E+00
      8.120  0.2915E-03  0.1600E+00
      8.203  0.2698E-04  0.1600E+00
      8.285  0.8715E-06  0.1600E+00
      8.368  0.8870E-08  0.1600E+00
      8.450  0.2649E-10  0.1600E+00
      8.533  0.2214E-13  0.1600E+00
      8.615  0.5043E-17  0.1600E+00
      8.698  0.0000E+00  0.1600E+00
      8.780  0.0000E+00  0.1600E+00
      8.863  0.0000E+00  0.1600E+00
      8.946  0.0000E+00  0.1600E+00
      9.028  0.0000E+00  0.1600E+00
      9.111  0.0000E+00  0.1600E+00
      9.193  0.0000E+00  0.1600E+00
      9.276  0.0000E+00  0.1600E+00
      9.358  0.0000E+00  0.1600E+00
      9.441  0.0000E+00  0.1600E+00
      9.523  0.9248E-16  0.1600E+00
      9.606  0.3012E-12  0.1600E+00
      9.688  0.2590E-09  0.1600E+00
      9.771  0.5952E-07  0.1600E+00
      9.853  0.3733E-05  0.1600E+00
      9.936  0.6659E-04  0.1600E+00
     10.018  0.3812E-03  0.1600E+00
     10.101  0.1026E-02  0.1601E+00
     10.184  0.2045E-02  0.1603E+00
     10.266  0.2685E-02  0.1605E+00
     10.349  0.2638E-02  0.1607E+00
     10.431  0.3160E-02  0.1610E+00
     10.514  0.3611E-02  0.1613E+00
     10.596  0.3276E-02  0.1616E+00
     10.679  0.2723E-02  0.1618E+00
     10.761  0.3124E-02  0.1620E+00
     10.844  0.4469E-02  0.1624E+00
     10.926  0.5254E-02  0.1628E+00
     11.009  0.3951E-02  0.1632E+00
     11.091  0.2903E-02  0.1634E+00
     11.174  0.4610E-02  0.1638E+00
     11.257  0.6495E-02  0.1643E+00
     11.339  0.7217E-02  0.1649E+00
     11.422  0.7835E-02  0.1656E+00
     11.504  0.8467E-02  0.1663E+00
     11.587  0.7993E-02  0.1669E+00
     11.669  0.6850E-02  0.1675E+00
     11.752  0.7958E-02  0.1681E+00
     11.834  0.1020E-01  0.1690E+00
     11.917  0.1119E-01  0.1699E+00
     11.999  0.1071E-01  0.1708E+00
     12.082  0.9758E-02  0.1716E+00
     12.164  0.9477E-02  0.1724E+00
     12.247  0.8612E-02  0.1731E+00
     12.329  0.7818E-02  0.1737E+00
     12.412  0.1089E-01  0.1746E+00
     12.495  0.1503E-01  0.1759E+00
     12.577  0.1593E-01  0.1772E+00
     12.660  0.1433E-01  0.1784E+00
     12.742  0.1196E-01  0.1794E+00
     12.825  0.1066E-01  0.1802E+00
     12.907  0.1170E-01  0.1812E+00
     12.990  0.1441E-01  0.1824E+00
     13.072  0.1522E-01  0.1837E+00
     13.155  0.1411E-01  0.1848E+00
     13.237  0.1278E-01  0.1859E+00
     13.320  0.1342E-01  0.1870E+00
     13.402  0.1608E-01  0.1883E+00
     13.485  0.1681E-01  0.1897E+00
     13.567  0.1482E-01  0.1909E+00
     13.650  0.1405E-01  0.1921E+00
     13.733  0.1311E-01  0.1932E+00
     13.815  0.1355E-01  0.1943E+00
     13.898  0.1518E-01  0.1955E+00
     13.980  0.1512E-01  0.1968E+00
     14.063  0.1481E-01  0.1980E+00
     14.145  0.1379E-01  0.1991E+00
     14.228  0.1248E-01  0.2002E+00
     14.310  0.1266E-01  0.2012E+00
     14.393  0.1211E-01  0.2022E+00
     14.475  0.1086E-01  0.2031E+00
     14.558  0.9376E-02  0.2039E+00
     14.640  0.8292E-02  0.2046E+00
     14.723  0.6764E-02  0.2051E+00
     14.805  0.5849E-02  0.2056E+00
     14.888  0.5415E-02  0.2061E+00
     14.971  0.4500E-02  0.2064E+00
     15.053  0.2139E-02  0.2066E+00
     15.136  0.5060E-03  0.2067E+00
     15.218  0.1426E-03  0.2067E+00
     15.301  0.5010E-04  0.2067E+00
     15.383  0.6610E-05  0.2067E+00
     15.466  0.2525E-06  0.2067E+00
     15.548  0.2669E-08  0.2067E+00
     15.631  0.7621E-11  0.2067E+00
     15.713  0.5789E-14  0.2067E+00
     15.796  0.1139E-17  0.2067E+00
     15.878  0.0000E+00  0.2067E+00
     15.961  0.0000E+00  0.2067E+00
     16.043  0.0000E+00  0.2067E+00
     16.126  0.0000E+00  0.2067E+00
     16.209  0.0000E+00  0.2067E+00
     16.291  0.0000E+00  0.2067E+00
