   12   12  300    1
  0.1031381E+02  0.3076621E-09  0.3076621E-09  0.1509808E-08  0.5000000E-15
  1.000000000000000E-004
  CAR 
 ni3al                                   
     48     96     31
 
  0.0000000E+00  0.0000000E+00  0.0000000E+00  0.7558579E-03
      1         -7.343703   1.000000
      2         -6.827871   1.000000
      3         -6.793394   1.000000
      4         -5.317664   1.000000
      5         -5.289424   1.000000
      6         -3.830614   1.000000
      7         -0.506271   1.000000
      8          1.802749   1.000000
      9          1.840296   1.000000
     10          5.583245   1.000000
     11          5.608820   1.000000
     12          6.859402   1.000000
     13          6.859403   1.000000
     14          7.045672   1.000000
     15          7.045673   1.000000
     16          7.152419   1.000000
     17          7.152420   1.000000
     18          7.618319   1.000000
     19          7.618320   1.000000
     20          7.699829   1.000000
     21          7.699829   1.000000
     22          7.963410   1.000000
     23          8.000143   1.000000
     24          8.000143   1.000000
     25         13.053068   0.000000
     26         13.225488   0.000000
     27         13.627454   0.000000
     28         14.137872   0.000000
     29         14.138151   0.000000
     30         14.538906   0.000000
     31         14.838268   0.000000
 
  0.4761905E-01  0.2290777E-17  0.0000000E+00  0.4535147E-02
      1         -7.304717   1.000000
      2         -6.789445   1.000000
      3         -6.754836   1.000000
      4         -5.281129   1.000000
      5         -5.252816   1.000000
      6         -3.797657   1.000000
      7         -0.470649   1.000000
      8          1.828309   1.000000
      9          1.865987   1.000000
     10          5.571828   1.000000
     11          5.599605   1.000000
     12          6.618884   1.000000
     13          6.776542   1.000000
     14          6.833525   1.000000
     15          6.938634   1.000000
     16          6.984422   1.000000
     17          7.080215   1.000000
     18          7.465281   1.000000
     19          7.549287   1.000000
     20          7.589109   1.000000
     21          7.663908   1.000000
     22          7.843697   1.000000
     23          7.937657   1.000000
     24          7.986098   1.000000
     25         13.203300   0.000000
     26         13.376166   0.000000
     27         13.740381   0.000000
     28         14.229534   0.000000
     29         14.245507   0.000000
     30         14.584092   0.000000
     31         14.761118   0.000000
 
  0.9523810E-01  0.1170475E-16  0.0000000E+00  0.4535147E-02
      1         -7.188064   1.000000
      2         -6.674523   1.000000
      3         -6.639509   1.000000
      4         -5.172034   1.000000
      5         -5.143523   1.000000
      6         -3.699725   1.000000
      7         -0.364732   1.000000
      8          1.901608   1.000000
      9          1.939544   1.000000
     10          5.500127   1.000000
     11          5.540138   1.000000
     12          6.001589   1.000000
     13          6.296962   1.000000
     14          6.393192   1.000000
     15          6.562543   1.000000
     16          6.813984   1.000000
     17          6.889208   1.000000
     18          7.053921   1.000000
     19          7.132833   1.000000
     20          7.432836   1.000000
     21          7.495307   1.000000
     22          7.555174   1.000000
     23          7.863316   1.000000
     24          7.933994   1.000000
     25         13.375942   0.000000
     26         13.594706   0.000000
     27         13.788601   0.000000
     28         14.271611   0.000000
     29         14.380849   0.000000
     30         14.495993   0.000000
     31         14.712297   0.000000
 
  0.1428571E+00  0.2547061E-16  0.0000000E+00  0.4535147E-02
      1         -6.994622   1.000000
      2         -6.484224   1.000000
      3         -6.448486   1.000000
      4         -4.992101   1.000000
      5         -4.963245   1.000000
      6         -3.539801   1.000000
      7         -0.191789   1.000000
      8          2.009851   1.000000
      9          2.047477   1.000000
     10          5.115912   1.000000
     11          5.217958   1.000000
     12          5.265499   1.000000
     13          5.707915   1.000000
     14          5.764240   1.000000
     15          6.277871   1.000000
     16          6.537464   1.000000
     17          6.570492   1.000000
     18          6.582562   1.000000
     19          6.628535   1.000000
     20          6.909530   1.000000
     21          7.337870   1.000000
     22          7.383359   1.000000
     23          7.740133   1.000000
     24          7.831875   1.000000
     25         12.974861   0.000000
     26         13.345051   0.000000
     27         13.387116   0.000000
     28         14.045343   0.000000
     29         14.385861   0.000000
     30         14.628506   0.000000
     31         14.930460   0.000000
 
  0.1904762E+00  0.2340950E-16  0.0000000E+00  0.4535147E-02
      1         -6.726203   1.000000
      2         -6.220629   1.000000
      3         -6.183747   1.000000
      4         -4.744679   1.000000
      5         -4.715266   1.000000
      6         -3.323804   1.000000
      7          0.040866   1.000000
      8          2.118243   1.000000
      9          2.152320   1.000000
     10          4.265093   1.000000
     11          4.434556   1.000000
     12          4.553996   1.000000
     13          5.158382   1.000000
     14          5.232862   1.000000
     15          5.888629   1.000000
     16          5.969646   1.000000
     17          6.264551   1.000000
     18          6.294163   1.000000
     19          6.340731   1.000000
     20          6.526114   1.000000
     21          7.136245   1.000000
     22          7.172069   1.000000
     23          7.566651   1.000000
     24          7.685439   1.000000
     25         12.366240   0.000000
     26         12.718328   0.000000
     27         12.897159   0.000000
     28         13.567856   0.000000
     29         14.116522   0.000000
     30         14.615723   0.000000
     31         14.912124   0.000000
 
  0.2380952E+00  0.4731787E-16  0.0000000E+00  0.4535147E-02
      1         -6.385660   1.000000
      2         -5.887266   1.000000
      3         -5.848621   1.000000
      4         -4.435697   1.000000
      5         -4.405498   1.000000
      6         -3.062971   1.000000
      7          0.316114   1.000000
      8          2.114272   1.000000
      9          2.153940   1.000000
     10          3.445066   1.000000
     11          3.593684   1.000000
     12          3.748964   1.000000
     13          4.519022   1.000000
     14          4.625508   1.000000
     15          5.148971   1.000000
     16          5.669372   1.000000
     17          6.016998   1.000000
     18          6.056443   1.000000
     19          6.125194   1.000000
     20          6.389056   1.000000
     21          6.917032   1.000000
     22          6.947802   1.000000
     23          7.353459   1.000000
     24          7.513869   1.000000
     25         11.776433   0.000000
     26         12.040199   0.000000
     27         12.438348   0.000000
     28         13.080349   0.000000
     29         13.770057   0.000000
     30         14.213281   0.000000
     31         14.579472   0.000000
 
  0.2857143E+00  0.2070480E-16  0.0000000E+00  0.4535147E-02
      1         -5.977656   1.000000
      2         -5.490008   1.000000
      3         -5.448587   1.000000
      4         -4.075941   1.000000
      5         -4.044698   1.000000
      6         -2.778812   1.000000
      7          0.586294   1.000000
      8          1.732394   1.000000
      9          1.884703   1.000000
     10          2.713079   1.000000
     11          2.950700   1.000000
     12          3.025844   1.000000
     13          4.044731   1.000000
     14          4.129978   1.000000
     15          4.410813   1.000000
     16          5.397712   1.000000
     17          5.761659   1.000000
     18          5.796766   1.000000
     19          5.968831   1.000000
     20          6.341990   1.000000
     21          6.704343   1.000000
     22          6.732997   1.000000
     23          7.129564   1.000000
     24          7.339040   1.000000
     25         11.253491   0.000000
     26         11.413886   0.000000
     27         12.038534   0.000000
     28         12.644010   0.000000
     29         13.440439   0.000000
     30         13.742364   0.000000
     31         14.297718   0.000000
 
  0.3333333E+00  0.4461317E-16  0.0000000E+00  0.4535147E-02
      1         -5.510005   1.000000
      2         -5.039400   1.000000
      3         -4.993252   1.000000
      4         -3.686373   1.000000
      5         -3.654015   1.000000
      6         -2.514061   1.000000
      7          0.697654   1.000000
      8          1.063893   1.000000
      9          1.329796   1.000000
     10          2.070046   1.000000
     11          2.319111   1.000000
     12          2.489745   1.000000
     13          3.523871   1.000000
     14          3.963354   1.000000
     15          4.171516   1.000000
     16          5.168220   1.000000
     17          5.543483   1.000000
     18          5.575953   1.000000
     19          5.702880   1.000000
     20          6.281789   1.000000
     21          6.516534   1.000000
     22          6.544495   1.000000
     23          6.923863   1.000000
     24          7.179582   1.000000
     25         10.802994   0.000000
     26         10.902038   0.000000
     27         11.711525   0.000000
     28         12.293928   0.000000
     29         13.165443   0.000000
     30         13.321822   0.000000
     31         13.971779   0.000000
 
  0.3809524E+00  0.4681901E-16  0.0000000E+00  0.4535147E-02
      1         -4.997202   1.000000
      2         -4.556411   1.000000
      3         -4.500916   1.000000
      4         -3.312228   1.000000
      5         -3.278854   1.000000
      6         -2.346251   1.000000
      7          0.342059   1.000000
      8          0.482322   1.000000
      9          0.829651   1.000000
     10          1.456416   1.000000
     11          1.613527   1.000000
     12          2.422008   1.000000
     13          2.789103   1.000000
     14          4.085815   1.000000
     15          4.365821   1.000000
     16          4.989777   1.000000
     17          5.353828   1.000000
     18          5.372610   1.000000
     19          5.403490   1.000000
     20          6.162593   1.000000
     21          6.366368   1.000000
     22          6.394194   1.000000
     23          6.728101   1.000000
     24          7.049351   1.000000
     25         10.425279   0.000000
     26         10.550516   0.000000
     27         11.460688   0.000000
     28         12.051923   0.000000
     29         12.902565   0.000000
     30         13.029345   0.000000
     31         13.525868   0.000000
 
  0.4285714E+00  0.4937903E-16  0.0000000E+00  0.4535147E-02
      1         -4.470535   1.000000
      2         -4.091629   1.000000
      3         -4.012147   1.000000
      4         -3.058166   1.000000
      5         -3.007655   1.000000
      6         -2.347834   1.000000
      7         -0.144331   1.000000
      8          0.064270   1.000000
      9          0.571594   1.000000
     10          0.819240   1.000000
     11          1.063166   1.000000
     12          2.091930   1.000000
     13          2.773487   1.000000
     14          4.092914   1.000000
     15          4.663202   1.000000
     16          4.868048   1.000000
     17          5.099695   1.000000
     18          5.255530   1.000000
     19          5.285506   1.000000
     20          5.978365   1.000000
     21          6.262173   1.000000
     22          6.290027   1.000000
     23          6.528451   1.000000
     24          6.957779   1.000000
     25         10.168137   0.000000
     26         10.331184   0.000000
     27         11.288868   0.000000
     28         11.918937   0.000000
     29         12.670444   0.000000
     30         12.810066   0.000000
     31         13.331773   0.000000
 
  0.4761905E+00  0.1135032E-15  0.0000000E+00  0.4535147E-02
      1         -4.022395   1.000000
      2         -3.789767   1.000000
      3         -3.636565   1.000000
      4         -3.040430   1.000000
      5         -2.925706   1.000000
      6         -2.439059   1.000000
      7         -0.352473   1.000000
      8         -0.075410   1.000000
      9          0.303468   1.000000
     10          0.323058   1.000000
     11          1.036603   1.000000
     12          1.517240   1.000000
     13          3.248513   1.000000
     14          3.771387   1.000000
     15          4.806400   1.000000
     16          4.917678   1.000000
     17          5.085850   1.000000
     18          5.196099   1.000000
     19          5.225656   1.000000
     20          5.792182   1.000000
     21          6.208918   1.000000
     22          6.236810   1.000000
     23          6.375208   1.000000
     24          6.910632   1.000000
     25         10.043753   0.000000
     26         10.224605   0.000000
     27         11.200979   0.000000
     28         11.870220   0.000000
     29         12.561495   0.000000
     30         12.630849   0.000000
     31         13.387193   0.000000
 
  0.4761905E-01  0.4761905E-01  0.0000000E+00  0.4535147E-02
      1         -7.226909   1.000000
      2         -6.712773   1.000000
      3         -6.677894   1.000000
      4         -5.208306   1.000000
      5         -5.179862   1.000000
      6         -3.732212   1.000000
      7         -0.399869   1.000000
      8          1.877793   1.000000
      9          1.915671   1.000000
     10          5.533744   1.000000
     11          5.567590   1.000000
     12          6.240529   1.000000
     13          6.388093   1.000000
     14          6.563249   1.000000
     15          6.726511   1.000000
     16          6.783436   1.000000
     17          6.893442   1.000000
     18          7.247549   1.000000
     19          7.381261   1.000000
     20          7.386662   1.000000
     21          7.484839   1.000000
     22          7.723438   1.000000
     23          7.896617   1.000000
     24          7.901259   1.000000
     25         13.422318   0.000000
     26         13.600124   0.000000
     27         13.846598   0.000000
     28         14.248643   0.000000
     29         14.363701   0.000000
     30         14.497888   0.000000
     31         14.599004   0.000000
 
  0.9523810E-01  0.4761905E-01  0.0000000E+00  0.9070295E-02
      1         -7.071831   1.000000
      2         -6.560147   1.000000
      3         -6.524709   1.000000
      4         -5.063760   1.000000
      5         -5.035044   1.000000
      6         -3.603233   1.000000
      7         -0.260334   1.000000
      8          1.969170   1.000000
      9          2.007085   1.000000
     10          5.361621   1.000000
     11          5.422431   1.000000
     12          5.561177   1.000000
     13          5.824945   1.000000
     14          5.972838   1.000000
     15          6.390597   1.000000
     16          6.537071   1.000000
     17          6.597599   1.000000
     18          6.830507   1.000000
     19          6.885402   1.000000
     20          7.148325   1.000000
     21          7.294083   1.000000
     22          7.497967   1.000000
     23          7.782606   1.000000
     24          7.821494   1.000000
     25         13.390700   0.000000
     26         13.672127   0.000000
     27         13.711200   0.000000
     28         14.069148   0.000000
     29         14.323208   0.000000
     30         14.482236   0.000000
     31         14.760061   0.000000
 
  0.1428571E+00  0.4761905E-01  0.0000000E+00  0.9070295E-02
      1         -6.840862   1.000000
      2         -6.333153   1.000000
      3         -6.296787   1.000000
      4         -4.849986   1.000000
      5         -4.820823   1.000000
      6         -3.415049   1.000000
      7         -0.057070   1.000000
      8          2.080835   1.000000
      9          2.117148   1.000000
     10          4.694762   1.000000
     11          4.813467   1.000000
     12          4.932232   1.000000
     13          5.308942   1.000000
     14          5.395238   1.000000
     15          6.032901   1.000000
     16          6.142406   1.000000
     17          6.321457   1.000000
     18          6.376434   1.000000
     19          6.460142   1.000000
     20          6.781623   1.000000
     21          7.079526   1.000000
     22          7.232285   1.000000
     23          7.645199   1.000000
     24          7.694861   1.000000
     25         12.832931   0.000000
     26         13.174920   0.000000
     27         13.280313   0.000000
     28         13.818280   0.000000
     29         14.357429   0.000000
     30         14.502098   0.000000
     31         14.875509   0.000000
 
  0.1904762E+00  0.4761905E-01  0.0000000E+00  0.9070295E-02
      1         -6.536261   1.000000
      2         -6.034505   1.000000
      3         -5.996706   1.000000
      4         -4.571460   1.000000
      5         -4.541626   1.000000
      6         -3.175922   1.000000
      7          0.198756   1.000000
      8          2.151718   1.000000
      9          2.181996   1.000000
     10          3.840993   1.000000
     11          3.999773   1.000000
     12          4.149544   1.000000
     13          4.753637   1.000000
     14          4.856333   1.000000
     15          5.393762   1.000000
     16          5.756551   1.000000
     17          6.058272   1.000000
     18          6.144415   1.000000
     19          6.198263   1.000000
     20          6.461066   1.000000
     21          6.849899   1.000000
     22          6.988985   1.000000
     23          7.474760   1.000000
     24          7.514229   1.000000
     25         12.231864   0.000000
     26         12.504148   0.000000
     27         12.816434   0.000000
     28         13.384628   0.000000
     29         14.054570   0.000000
     30         14.433376   0.000000
     31         14.650551   0.000000
 
  0.2380952E+00  0.4761905E-01  0.0000000E+00  0.9070295E-02
      1         -6.161704   1.000000
      2         -5.668782   1.000000
      3         -5.628770   1.000000
      4         -4.236217   1.000000
      5         -4.205450   1.000000
      6         -2.901480   1.000000
      7          0.479078   1.000000
      8          1.982249   1.000000
      9          2.065939   1.000000
     10          3.082944   1.000000
     11          3.237979   1.000000
     12          3.382954   1.000000
     13          4.210732   1.000000
     14          4.336318   1.000000
     15          4.673256   1.000000
     16          5.428276   1.000000
     17          5.730676   1.000000
     18          5.844514   1.000000
     19          6.077198   1.000000
     20          6.320705   1.000000
     21          6.632729   1.000000
     22          6.780199   1.000000
     23          7.282563   1.000000
     24          7.302549   1.000000
     25         11.679502   0.000000
     26         11.848468   0.000000
     27         12.397924   0.000000
     28         12.950639   0.000000
     29         13.715580   0.000000
     30         14.065967   0.000000
     31         14.352705   0.000000
 
  0.2857143E+00  0.4761905E-01  0.0000000E+00  0.9070295E-02
      1         -5.723187   1.000000
      2         -5.243791   1.000000
      3         -5.200204   1.000000
      4         -3.859178   1.000000
      5         -3.827303   1.000000
      6         -2.622185   1.000000
      7          0.698201   1.000000
      8          1.419550   1.000000
      9          1.630611   1.000000
     10          2.387078   1.000000
     11          2.677637   1.000000
     12          2.703279   1.000000
     13          3.852499   1.000000
     14          3.968339   1.000000
     15          4.177320   1.000000
     16          5.139354   1.000000
     17          5.451255   1.000000
     18          5.561695   1.000000
     19          5.873169   1.000000
     20          6.208685   1.000000
     21          6.449076   1.000000
     22          6.624369   1.000000
     23          7.061787   1.000000
     24          7.119730   1.000000
     25         11.184868   0.000000
     26         11.287305   0.000000
     27         12.047212   0.000000
     28         12.573420   0.000000
     29         13.407499   0.000000
     30         13.634763   0.000000
     31         14.155984   0.000000
 
  0.3333333E+00  0.4761905E-01  0.0000000E+00  0.9070295E-02
      1         -5.231218   1.000000
      2         -4.774130   1.000000
      3         -4.724108   1.000000
      4         -3.470848   1.000000
      5         -3.438166   1.000000
      6         -2.397366   1.000000
      7          0.610610   1.000000
      8          0.755940   1.000000
      9          1.062251   1.000000
     10          1.783679   1.000000
     11          1.966500   1.000000
     12          2.399625   1.000000
     13          3.135456   1.000000
     14          4.033620   1.000000
     15          4.257527   1.000000
     16          4.907231   1.000000
     17          5.219811   1.000000
     18          5.337154   1.000000
     19          5.572126   1.000000
     20          6.063997   1.000000
     21          6.295265   1.000000
     22          6.502208   1.000000
     23          6.848939   1.000000
     24          6.967187   1.000000
     25         10.740890   0.000000
     26         10.884887   0.000000
     27         11.770313   0.000000
     28         12.284570   0.000000
     29         13.133286   0.000000
     30         13.283792   0.000000
     31         13.821889   0.000000
 
  0.3809524E+00  0.4761905E-01  0.0000000E+00  0.9070295E-02
      1         -4.706461   1.000000
      2         -4.291400   1.000000
      3         -4.227185   1.000000
      4         -3.139807   1.000000
      5         -3.104017   1.000000
      6         -2.314513   1.000000
      7          0.095778   1.000000
      8          0.274831   1.000000
      9          0.701396   1.000000
     10          1.144289   1.000000
     11          1.311176   1.000000
     12          2.415031   1.000000
     13          2.600377   1.000000
     14          4.136023   1.000000
     15          4.513763   1.000000
     16          4.741941   1.000000
     17          5.040420   1.000000
     18          5.180796   1.000000
     19          5.269995   1.000000
     20          5.900350   1.000000
     21          6.178260   1.000000
     22          6.378940   1.000000
     23          6.637901   1.000000
     24          6.851106   1.000000
     25         10.410292   0.000000
     26         10.613042   0.000000
     27         11.568419   0.000000
     28         12.098755   0.000000
     29         12.872556   0.000000
     30         13.032021   0.000000
     31         13.509050   0.000000
 
  0.4285714E+00  0.4761905E-01  0.0000000E+00  0.9070295E-02
      1         -4.199736   1.000000
      2         -3.880469   1.000000
      3         -3.774189   1.000000
      4         -3.005277   1.000000
      5         -2.925662   1.000000
      6         -2.384742   1.000000
      7         -0.260824   1.000000
      8         -0.023734   1.000000
      9          0.468475   1.000000
     10          0.558631   1.000000
     11          0.988822   1.000000
     12          1.792447   1.000000
     13          3.019206   1.000000
     14          3.970457   1.000000
     15          4.645616   1.000000
     16          4.774789   1.000000
     17          4.994105   1.000000
     18          5.086083   1.000000
     19          5.129785   1.000000
     20          5.723717   1.000000
     21          6.119370   1.000000
     22          6.270416   1.000000
     23          6.434897   1.000000
     24          6.778557   1.000000
     25         10.217372   0.000000
     26         10.453758   0.000000
     27         11.444292   0.000000
     28         12.008115   0.000000
     29         12.703859   0.000000
     30         12.807110   0.000000
     31         13.466126   0.000000
 
  0.4761905E+00  0.4761905E-01  0.0000000E+00  0.4535147E-02
      1         -3.904766   1.000000
      2         -3.738234   1.000000
      3         -3.550716   1.000000
      4         -3.038082   1.000000
      5         -2.911781   1.000000
      6         -2.449793   1.000000
      7         -0.340141   1.000000
      8         -0.036949   1.000000
      9          0.236175   1.000000
     10          0.280152   1.000000
     11          1.134262   1.000000
     12          1.384409   1.000000
     13          3.428508   1.000000
     14          3.622618   1.000000
     15          4.613235   1.000000
     16          4.869544   1.000000
     17          5.026622   1.000000
     18          5.040896   1.000000
     19          5.162755   1.000000
     20          5.610269   1.000000
     21          6.114655   1.000000
     22          6.227194   1.000000
     23          6.330042   1.000000
     24          6.753886   1.000000
     25         10.155066   0.000000
     26         10.401444   0.000000
     27         11.402229   0.000000
     28         11.984314   0.000000
     29         12.665296   0.000000
     30         12.695018   0.000000
     31         13.583367   0.000000
 
  0.9523810E-01  0.9523810E-01  0.0000000E+00  0.4535147E-02
      1         -6.879178   1.000000
      2         -6.370775   1.000000
      3         -6.334573   1.000000
      4         -4.885290   1.000000
      5         -4.856207   1.000000
      6         -3.445839   1.000000
      7         -0.090174   1.000000
      8          2.065982   1.000000
      9          2.102875   1.000000
     10          4.955266   1.000000
     11          5.036355   1.000000
     12          5.137972   1.000000
     13          5.168428   1.000000
     14          5.396181   1.000000
     15          6.015114   1.000000
     16          6.218468   1.000000
     17          6.307003   1.000000
     18          6.388453   1.000000
     19          6.641579   1.000000
     20          6.923482   1.000000
     21          6.931728   1.000000
     22          7.336746   1.000000
     23          7.483481   1.000000
     24          7.755853   1.000000
     25         13.430884   0.000000
     26         13.504251   0.000000
     27         13.660039   0.000000
     28         13.852917   0.000000
     29         13.912943   0.000000
     30         14.422799   0.000000
     31         14.865008   0.000000
 
  0.1428571E+00  0.9523810E-01  0.0000000E+00  0.9070295E-02
      1         -6.611932   1.000000
      2         -6.108580   1.000000
      3         -6.071182   1.000000
      4         -4.640106   1.000000
      5         -4.610443   1.000000
      6         -3.233832   1.000000
      7          0.137896   1.000000
      8          2.153650   1.000000
      9          2.185772   1.000000
     10          4.208587   1.000000
     11          4.355191   1.000000
     12          4.525092   1.000000
     13          4.675576   1.000000
     14          4.856608   1.000000
     15          5.418788   1.000000
     16          5.863023   1.000000
     17          6.056729   1.000000
     18          6.099228   1.000000
     19          6.303068   1.000000
     20          6.596263   1.000000
     21          6.676697   1.000000
     22          6.998621   1.000000
     23          7.256408   1.000000
     24          7.628447   1.000000
     25         12.922015   0.000000
     26         13.132161   0.000000
     27         13.330309   0.000000
     28         13.581563   0.000000
     29         13.919915   0.000000
     30         14.395231   0.000000
     31         14.919651   0.000000
 
  0.1904762E+00  0.9523810E-01  0.0000000E+00  0.9070295E-02
      1         -6.272995   1.000000
      2         -5.777124   1.000000
      3         -5.737906   1.000000
      4         -4.334341   1.000000
      5         -4.303862   1.000000
      6         -2.978944   1.000000
      7          0.405798   1.000000
      8          2.118605   1.000000
      9          2.159497   1.000000
     10          3.438771   1.000000
     11          3.590213   1.000000
     12          3.761104   1.000000
     13          4.253267   1.000000
     14          4.424029   1.000000
     15          4.761681   1.000000
     16          5.397693   1.000000
     17          5.653606   1.000000
     18          5.822584   1.000000
     19          6.108102   1.000000
     20          6.345372   1.000000
     21          6.390597   1.000000
     22          6.757207   1.000000
     23          7.051767   1.000000
     24          7.436607   1.000000
     25         12.375014   0.000000
     26         12.483055   0.000000
     27         12.976851   0.000000
     28         13.301221   0.000000
     29         13.854916   0.000000
     30         14.223861   0.000000
     31         14.590335   0.000000
 
  0.2380952E+00  0.9523810E-01  0.0000000E+00  0.9070295E-02
      1         -5.867095   1.000000
      2         -5.382415   1.000000
      3         -5.340381   1.000000
      4         -3.979081   1.000000
      5         -3.947573   1.000000
      6         -2.703419   1.000000
      7          0.664653   1.000000
      8          1.743813   1.000000
      9          1.884647   1.000000
     10          2.744725   1.000000
     11          2.938409   1.000000
     12          3.029863   1.000000
     13          3.996339   1.000000
     14          4.080179   1.000000
     15          4.173229   1.000000
     16          4.991651   1.000000
     17          5.233983   1.000000
     18          5.472706   1.000000
     19          5.865663   1.000000