Automatically generated mesh
      96
Reciprocal lattice
    0.00000000000000    0.00000000000000    0.00000000000000             1
    0.04761904761905    0.00000000000000    0.00000000000000             6
    0.09523809523809    0.00000000000000    0.00000000000000             6
    0.14285714285715    0.00000000000000    0.00000000000000             6
    0.19047619047619    0.00000000000000    0.00000000000000             6
    0.23809523809524    0.00000000000000    0.00000000000000             6
    0.28571428571428    0.00000000000000    0.00000000000000             6
    0.33333333333334    0.00000000000000    0.00000000000000             6
    0.38095238095238    0.00000000000000    0.00000000000000             6
    0.42857142857143    0.00000000000000    0.00000000000000             6
    0.47619047619047    0.00000000000000    0.00000000000000             6
    0.04761904761905    0.04761904761905    0.00000000000000             6
    0.09523809523809    0.04761904761905    0.00000000000000            12
    0.14285714285715    0.04761904761905    0.00000000000000            12
    0.19047619047619    0.04761904761905    0.00000000000000            12
    0.23809523809524    0.04761904761905    0.00000000000000            12
    0.28571428571428    0.04761904761905    0.00000000000000            12
    0.33333333333334    0.04761904761905    0.00000000000000            12
    0.38095238095238    0.04761904761905    0.00000000000000            12
    0.42857142857143    0.04761904761905    0.00000000000000            12
    0.47619047619047    0.04761904761905    0.00000000000000             6
    0.09523809523809    0.09523809523809    0.00000000000000             6
    0.14285714285715    0.09523809523809    0.00000000000000            12
    0.19047619047619    0.09523809523809    0.00000000000000            12
    0.23809523809524    0.09523809523809    0.00000000000000            12
    0.28571428571428    0.09523809523809    0.00000000000000            12
    0.33333333333334    0.09523809523809    0.00000000000000            12
    0.38095238095238    0.09523809523809    0.00000000000000            12
    0.42857142857143    0.09523809523809    0.00000000000000            12
    0.14285714285715    0.14285714285715    0.00000000000000             6
    0.19047619047619    0.14285714285715    0.00000000000000            12
    0.23809523809524    0.14285714285715    0.00000000000000            12
    0.28571428571428    0.14285714285715    0.00000000000000            12
    0.33333333333334    0.14285714285715    0.00000000000000            12
    0.38095238095238    0.14285714285715    0.00000000000000            12
    0.42857142857143    0.14285714285715    0.00000000000000             6
    0.19047619047619    0.19047619047619    0.00000000000000             6
    0.23809523809524    0.19047619047619    0.00000000000000            12
    0.28571428571428    0.19047619047619    0.00000000000000            12
    0.33333333333334    0.19047619047619    0.00000000000000            12
    0.38095238095238    0.19047619047619    0.00000000000000            12
    0.23809523809524    0.23809523809524    0.00000000000000             6
    0.28571428571428    0.23809523809524    0.00000000000000            12
    0.33333333333334    0.23809523809524    0.00000000000000            12
    0.38095238095238    0.23809523809524    0.00000000000000             6
    0.28571428571428    0.28571428571428    0.00000000000000             6
    0.33333333333334    0.28571428571428    0.00000000000000            12
    0.33333333333334    0.33333333333334    0.00000000000000             2
    0.00000000000000    0.00000000000000    0.33333333333333             2
    0.04761904761905    0.00000000000000    0.33333333333333            12
    0.09523809523809    0.00000000000000    0.33333333333333            12
    0.14285714285715    0.00000000000000    0.33333333333333            12
    0.19047619047619    0.00000000000000    0.33333333333333            12
    0.23809523809524    0.00000000000000    0.33333333333333            12
    0.28571428571428    0.00000000000000    0.33333333333333            12
    0.33333333333334    0.00000000000000    0.33333333333333            12
    0.38095238095238    0.00000000000000    0.33333333333333            12
    0.42857142857143    0.00000000000000    0.33333333333333            12
    0.47619047619047    0.00000000000000    0.33333333333333            12
    0.04761904761905    0.04761904761905    0.33333333333333            12
    0.09523809523809    0.04761904761905    0.33333333333333            24
    0.14285714285715    0.04761904761905    0.33333333333333            24
    0.19047619047619    0.04761904761905    0.33333333333333            24
    0.23809523809524    0.04761904761905    0.33333333333333            24
    0.28571428571428    0.04761904761905    0.33333333333333            24
    0.33333333333334    0.04761904761905    0.33333333333333            24
    0.38095238095238    0.04761904761905    0.33333333333333            24
    0.42857142857143    0.04761904761905    0.33333333333333            24
    0.47619047619047    0.04761904761905    0.33333333333333            12
    0.09523809523809    0.09523809523809    0.33333333333333            12
    0.14285714285715    0.09523809523809    0.33333333333333            24
    0.19047619047619    0.09523809523809    0.33333333333333            24
    0.23809523809524    0.09523809523809    0.33333333333333            24
    0.28571428571428    0.09523809523809    0.33333333333333            24
    0.33333333333334    0.09523809523809    0.33333333333333            24
    0.38095238095238    0.09523809523809    0.33333333333333            24
    0.42857142857143    0.09523809523809    0.33333333333333            24
    0.14285714285715    0.14285714285715    0.33333333333333            12
    0.19047619047619    0.14285714285715    0.33333333333333            24
    0.23809523809524    0.14285714285715    0.33333333333333            24
    0.28571428571428    0.14285714285715    0.33333333333333            24
    0.33333333333334    0.14285714285715    0.33333333333333            24
    0.38095238095238    0.14285714285715    0.33333333333333            24
    0.42857142857143    0.14285714285715    0.33333333333333            12
    0.19047619047619    0.19047619047619    0.33333333333333            12
    0.23809523809524    0.19047619047619    0.33333333333333            24
    0.28571428571428    0.19047619047619    0.33333333333333            24
    0.33333333333334    0.19047619047619    0.33333333333333            24
    0.38095238095238    0.19047619047619    0.33333333333333            24
    0.23809523809524    0.23809523809524    0.33333333333333            12
    0.28571428571428    0.23809523809524    0.33333333333333            24
    0.33333333333334    0.23809523809524    0.33333333333333            24
    0.38095238095238    0.23809523809524    0.33333333333333            12
    0.28571428571428    0.28571428571428    0.33333333333333            12
    0.33333333333334    0.28571428571428    0.33333333333333            24
    0.33333333333334    0.33333333333334    0.33333333333333             4
