 vasp.6.3.2 27Jun22 (build Mar 15 2023 15:45:48) complex                        
  
 executed on             LinuxIFC date 2024.07.14  12:07:21
 running on    4 total cores
 distrk:  each k-point on    1 cores,    4 groups
 distr:  one band on NCORE=   1 cores,    1 groups


--------------------------------------------------------------------------------------------------------


 INCAR:
   SYSTEM = ni3al
   PREC = Accurate
   EDIFF = 1E-6
   EDIFFG = -1E-2
   ISTART = 0
   ICHARG = 2
   LREAL = Auto
   NSW = 300
   ISIF = 3
   IBRION = 2
   ISMEAR = 0
   SIGMA = 0.1
   ENCUT = 530
   ALGO = Fast
   LMAXMIX = 4
   AMIN = 0.01
   NELM = 150
   LCHARG = .FALSE.
   LWAVE = .FALSE.
   KPAR = 8

 POTCAR:   PAW_PBE Si 05Jan2001                   
 POTCAR:   PAW_PBE C 08Apr2002                    
 POTCAR:   PAW_PBE Si 05Jan2001                   
   VRHFIN =Si: s2p2                                                                                 
   LEXCH  = PE                                                                                      
   EATOM  =   103.0669 eV,    7.5752 Ry                                                             
                                                                                                    
   TITEL  = PAW_PBE Si 05Jan2001                                                                    
   LULTRA =        F    use ultrasoft PP ?                                                          
   IUNSCR =        1    unscreen: 0-lin 1-nonlin 2-no                                               
   RPACOR =    1.500    partial core radius                                                         
   POMASS =   28.085; ZVAL   =    4.000    mass and valenz                                          
   RCORE  =    1.900    outmost cutoff radius                                                       
   RWIGS  =    2.480; RWIGS  =    1.312    wigner-seitz radius (au A)                               
   ENMAX  =  245.345; ENMIN  =  184.009 eV                                                          
   ICORE  =        2    local potential                                                             
   LCOR   =        T    correct aug charges                                                         
   LPAW   =        T    paw PP                                                                      
   EAUG   =  322.069                                                                                
   DEXC   =    -.007                                                                                
   RMAX   =    2.944    core radius for proj-oper                                                   
   RAUG   =    1.300    factor for augmentation sphere                                              
   RDEP   =    1.993    radius for radial grids                                                     
   QCUT   =   -4.246; QGAM   =    8.493    optimization parameters                                  
                                                                                                    
   Description                                                                                      
     l     E      TYP  RCUT    TYP  RCUT                                                            
     0   .000     23  1.900                                                                         
     0   .000     23  1.900                                                                         
     1   .000     23  1.900                                                                         
     1   .000     23  1.900                                                                         
     2   .000      7  1.900                                                                         
  local pseudopotential read in
  partial core-charges read in
  atomic valenz-charges read in
  non local Contribution for L=           0  read in
    real space projection operators read in
  non local Contribution for L=           0  read in
    real space projection operators read in
  non local Contribution for L=           1  read in
    real space projection operators read in
  non local Contribution for L=           1  read in
    real space projection operators read in
    PAW grid and wavefunctions read in
 
   number of l-projection  operators is LMAX  =           4
   number of lm-projection operators is LMMAX =           8
 
 POTCAR:   PAW_PBE C 08Apr2002                    
   VRHFIN =C: s2p2                                                                                  
   LEXCH  = PE                                                                                      
   EATOM  =   147.1560 eV,   10.8157 Ry                                                             
                                                                                                    
   TITEL  = PAW_PBE C 08Apr2002                                                                     
   LULTRA =        F    use ultrasoft PP ?                                                          
   IUNSCR =        0    unscreen: 0-lin 1-nonlin 2-no                                               
   RPACOR =     .000    partial core radius                                                         
   POMASS =   12.011; ZVAL   =    4.000    mass and valenz                                          
   RCORE  =    1.500    outmost cutoff radius                                                       
   RWIGS  =    1.630; RWIGS  =     .863    wigner-seitz radius (au A)                               
   ENMAX  =  400.000; ENMIN  =  300.000 eV                                                          
   ICORE  =        2    local potential                                                             
   LCOR   =        T    correct aug charges                                                         
   LPAW   =        T    paw PP                                                                      
   EAUG   =  644.873                                                                                
   DEXC   =     .000                                                                                
   RMAX   =    2.266    core radius for proj-oper                                                   
   RAUG   =    1.300    factor for augmentation sphere                                              
   RDEP   =    1.501    radius for radial grids                                                     
   RDEPT  =    1.300    core radius for aug-charge                                                  
   QCUT   =   -5.516; QGAM   =   11.032    optimization parameters                                  
                                                                                                    
   Description                                                                                      
     l     E      TYP  RCUT    TYP  RCUT                                                            
     0   .000     23  1.200                                                                         
     0   .000     23  1.200                                                                         
     1   .000     23  1.500                                                                         
     1  2.500     23  1.500                                                                         
     2   .000      7  1.500                                                                         
  local pseudopotential read in
  atomic valenz-charges read in
  non local Contribution for L=           0  read in
    real space projection operators read in
  non local Contribution for L=           0  read in
    real space projection operators read in
  non local Contribution for L=           1  read in
    real space projection operators read in
  non local Contribution for L=           1  read in
    real space projection operators read in
    PAW grid and wavefunctions read in
 
   number of l-projection  operators is LMAX  =           4
   number of lm-projection operators is LMMAX =           8
 
 Optimization of the real space projectors (new method)

 maximal supplied QI-value         = 19.84
 optimisation between [QCUT,QGAM] = [ 11.71, 23.41] = [ 38.38,153.51] Ry 
 Optimized for a Real-space Cutoff    1.20 Angstroem

   l    n(q)    QCUT    max X(q) W(low)/X(q) W(high)/X(q)  e(spline) 
   0      8    11.707     8.708    0.17E-04    0.67E-05    0.45E-08
   0      8    11.707   106.241    0.59E-04    0.18E-03    0.53E-07
   1      8    11.707     5.901    0.60E-05    0.19E-04    0.21E-07
   1      8    11.707    73.241    0.22E-03    0.21E-04    0.75E-07
 Optimization of the real space projectors (new method)

 maximal supplied QI-value         = 25.13
 optimisation between [QCUT,QGAM] = [ 11.56, 23.37] = [ 37.43,152.99] Ry 
 Optimized for a Real-space Cutoff    1.07 Angstroem

   l    n(q)    QCUT    max X(q) W(low)/X(q) W(high)/X(q)  e(spline) 
   0      7    11.561     5.582    0.43E-04    0.82E-04    0.19E-07
   0      7    11.561    69.432    0.18E-03    0.47E-03    0.23E-06
   1      7    11.561     2.780    0.18E-04    0.55E-04    0.48E-07
   1      7    11.561     4.549    0.18E-03    0.21E-03    0.13E-06
 PAW_PBE Si 05Jan2001                   :
 energy of atom  1       EATOM= -103.0669
 kinetic energy error for atom=    0.0005 (will be added to EATOM!!)
 PAW_PBE C 08Apr2002                    :
 energy of atom  2       EATOM= -147.1560
 kinetic energy error for atom=    0.0069 (will be added to EATOM!!)
 
 
 POSCAR: Si6 C6
  positions in direct lattice
  No initial velocities read in
 exchange correlation table for  LEXCH =        8
   RHO(1)=    0.500       N(1)  =     2000
   RHO(2)=  100.500       N(2)  =     4000

 VTST: version 4.2, (08/11/21)

 CHAIN: initializing optimizer
 
 OPT: Using VASP Conjugate-Gradient optimizer
 CHAIN: Read ICHAIN            0
 
 POSCAR: Si6 C6
  positions in direct lattice
  No initial velocities read in
 


--------------------------------------------------------------------------------------------------------


 ion  position               nearest neighbor table
   1  0.000  0.000  0.500-  10 1.89  10 1.89  10 1.89   7 1.89   6 3.08   6 3.08   6 3.08   4 3.08
                             4 3.08   4 3.08
   2  0.000  0.000  1.000-   9 1.89   9 1.89   9 1.89   8 1.89   5 3.08   5 3.08   5 3.08   3 3.08
                             3 3.08   3 3.08
   3  0.333  0.667  0.167-  12 1.88  12 1.88  12 1.88   9 1.89   6 3.08   6 3.08   6 3.08   2 3.08
                             2 3.08   2 3.08
   4  0.667  0.333  0.667-  11 1.88  11 1.88  11 1.88  10 1.89   5 3.08   5 3.08   5 3.08   1 3.08
                             1 3.08   1 3.08
   5  0.333  0.667  0.833-   8 1.88   8 1.88   8 1.88  11 1.89   4 3.08   4 3.08   4 3.08   2 3.08
                             2 3.08   2 3.08
   6  0.667  0.333  0.333-   7 1.88   7 1.88   7 1.88  12 1.89   3 3.08   3 3.08   3 3.08   1 3.08
                             1 3.08   1 3.08
   7  0.000  0.000  0.374-   6 1.88   6 1.88   6 1.88   1 1.89
   8  0.000  0.000  0.874-   5 1.88   5 1.88   5 1.88   2 1.89
   9  0.333  0.667  0.042-   2 1.89   2 1.89   2 1.89   3 1.89
  10  0.667  0.333  0.542-   1 1.89   1 1.89   1 1.89   4 1.89
  11  0.333  0.667  0.708-   4 1.88   4 1.88   4 1.88   5 1.89
  12  0.667  0.333  0.208-   3 1.88   3 1.88   3 1.88   6 1.89
 
  LATTYP: Found a hexagonal cell.
 ALAT       =     3.0766210556
 C/A-ratio  =     4.9073591375
  
  Lattice vectors:
  
 A1 = (   3.0766210556,   0.0000000000,   0.0000000000)
 A2 = (  -1.5383105278,   2.6644319920,   0.0000000000)
 A3 = (   0.0000000000,   0.0000000000,  15.0980844498)


Analysis of symmetry for initial positions (statically):
=====================================================================
 Subroutine PRICEL returns:
 Original cell was already a primitive cell.
 

 Routine SETGRP: Setting up the symmetry group for a 
 hexagonal supercell.


 Subroutine GETGRP returns: Found 12 space group operations
 (whereof  6 operations were pure point group operations)
 out of a pool of 24 trial point group operations.


The static configuration has the point symmetry C_3v.
 The point group associated with its full space group is C_6v.


Analysis of symmetry for dynamics (positions and initial velocities):
=====================================================================
 Subroutine PRICEL returns:
 Original cell was already a primitive cell.
 

 Routine SETGRP: Setting up the symmetry group for a 
 hexagonal supercell.


 Subroutine GETGRP returns: Found 12 space group operations
 (whereof  6 operations were pure point group operations)
 out of a pool of 24 trial point group operations.


The dynamic configuration has the point symmetry C_3v.
 The point group associated with its full space group is C_6v.


 Subroutine INISYM returns: Found 12 space group operations
 (whereof  6 operations are pure point group operations),
 and found     1 'primitive' translations


----------------------------------------------------------------------------------------

                                     Primitive cell                                     

  volume of cell :     123.7658

  direct lattice vectors                    reciprocal lattice vectors
     3.076621056  0.000000000  0.000000000     0.325031904  0.187657257  0.000000000
    -1.538310528  2.664431992  0.000000000     0.000000000  0.375314515  0.000000000
     0.000000000  0.000000000 15.098084450     0.000000000  0.000000000  0.066233568

  length of vectors
     3.076621056  3.076621056 15.098084450     0.375314515  0.375314515  0.066233568

  position of ions in fractional coordinates (direct lattice)
     0.000000000  0.000000000  0.499729420
     0.000000000  0.000000000  0.999729420
     0.333333343  0.666666687  0.166500600
     0.666666657  0.333333313  0.666500600
     0.333333343  0.666666687  0.832986150
     0.666666657  0.333333313  0.332986150
     0.000000000  0.000000000  0.374366410
     0.000000000  0.000000000  0.874366410
     0.333333343  0.666666687  0.041521640
     0.666666657  0.333333313  0.541521640
     0.333333343  0.666666687  0.707996780
     0.666666657  0.333333313  0.207996780

  ion indices of the primitive-cell ions
   primitive index   ion index
                 1           1
                 2           2
                 3           3
                 4           4
                 5           5
                 6           6
                 7           7
                 8           8
                 9           9
                10          10
                11          11
                12          12

----------------------------------------------------------------------------------------

 
 
 KPOINTS: K-Spacing Value to Generate K-Mesh: 0.02

Automatic generation of k-mesh.
 Grid dimensions read from file:
 generate k-points for:   21   21    3

 Generating k-lattice:

  Cartesian coordinates                     Fractional coordinates (reciprocal lattice)
     0.015477710  0.008936060  0.000000000     0.047619048 -0.000000000  0.000000000
     0.000000000  0.017872120  0.000000000     0.000000000  0.047619048  0.000000000
     0.000000000  0.000000000  0.022077856     0.000000000  0.000000000  0.333333333

  Length of vectors
     0.017872120  0.017872120  0.022077856

  Shift w.r.t. Gamma in fractional coordinates (k-lattice)
     0.000000000  0.000000000  0.000000000

 
 Subroutine IBZKPT returns following result:
 ===========================================
 
 Found     96 irreducible k-points:
 
 Following reciprocal coordinates:
            Coordinates               Weight
  0.000000  0.000000  0.000000      1.000000
  0.047619  0.000000  0.000000      6.000000
  0.095238  0.000000  0.000000      6.000000
  0.142857  0.000000  0.000000      6.000000
  0.190476  0.000000  0.000000      6.000000
  0.238095  0.000000  0.000000      6.000000
  0.285714  0.000000  0.000000      6.000000
  0.333333  0.000000  0.000000      6.000000
  0.380952  0.000000  0.000000      6.000000
  0.428571  0.000000  0.000000      6.000000
  0.476190  0.000000  0.000000      6.000000
  0.047619  0.047619  0.000000      6.000000
  0.095238  0.047619  0.000000     12.000000
  0.142857  0.047619  0.000000     12.000000
  0.190476  0.047619  0.000000     12.000000
  0.238095  0.047619  0.000000     12.000000
  0.285714  0.047619  0.000000     12.000000
  0.333333  0.047619  0.000000     12.000000
  0.380952  0.047619  0.000000     12.000000
  0.428571  0.047619  0.000000     12.000000
  0.476190  0.047619  0.000000      6.000000
  0.095238  0.095238  0.000000      6.000000
  0.142857  0.095238  0.000000     12.000000
  0.190476  0.095238  0.000000     12.000000
  0.238095  0.095238  0.000000     12.000000
  0.285714  0.095238  0.000000     12.000000
  0.333333  0.095238  0.000000     12.000000
  0.380952  0.095238  0.000000     12.000000
  0.428571  0.095238  0.000000     12.000000
  0.142857  0.142857  0.000000      6.000000
  0.190476  0.142857  0.000000     12.000000
  0.238095  0.142857  0.000000     12.000000
  0.285714  0.142857  0.000000     12.000000
  0.333333  0.142857  0.000000     12.000000
  0.380952  0.142857  0.000000     12.000000
  0.428571  0.142857  0.000000      6.000000
  0.190476  0.190476  0.000000      6.000000
  0.238095  0.190476  0.000000     12.000000
  0.285714  0.190476  0.000000     12.000000
  0.333333  0.190476  0.000000     12.000000
  0.380952  0.190476  0.000000     12.000000
  0.238095  0.238095  0.000000      6.000000
  0.285714  0.238095  0.000000     12.000000
  0.333333  0.238095  0.000000     12.000000
  0.380952  0.238095  0.000000      6.000000
  0.285714  0.285714  0.000000      6.000000
  0.333333  0.285714  0.000000     12.000000
  0.333333  0.333333  0.000000      2.000000
  0.000000  0.000000  0.333333      2.000000
  0.047619  0.000000  0.333333     12.000000
  0.095238  0.000000  0.333333     12.000000
  0.142857  0.000000  0.333333     12.000000
  0.190476  0.000000  0.333333     12.000000
  0.238095  0.000000  0.333333     12.000000
  0.285714  0.000000  0.333333     12.000000
  0.333333  0.000000  0.333333     12.000000
  0.380952  0.000000  0.333333     12.000000
  0.428571  0.000000  0.333333     12.000000
  0.476190  0.000000  0.333333     12.000000
  0.047619  0.047619  0.333333     12.000000
  0.095238  0.047619  0.333333     24.000000
  0.142857  0.047619  0.333333     24.000000
  0.190476  0.047619  0.333333     24.000000
  0.238095  0.047619  0.333333     24.000000
  0.285714  0.047619  0.333333     24.000000
  0.333333  0.047619  0.333333     24.000000
  0.380952  0.047619  0.333333     24.000000
  0.428571  0.047619  0.333333     24.000000
  0.476190  0.047619  0.333333     12.000000
  0.095238  0.095238  0.333333     12.000000
  0.142857  0.095238  0.333333     24.000000
  0.190476  0.095238  0.333333     24.000000
  0.238095  0.095238  0.333333     24.000000
  0.285714  0.095238  0.333333     24.000000
  0.333333  0.095238  0.333333     24.000000
  0.380952  0.095238  0.333333     24.000000
  0.428571  0.095238  0.333333     24.000000
  0.142857  0.142857  0.333333     12.000000
  0.190476  0.142857  0.333333     24.000000
  0.238095  0.142857  0.333333     24.000000
  0.285714  0.142857  0.333333     24.000000
  0.333333  0.142857  0.333333     24.000000
  0.380952  0.142857  0.333333     24.000000
  0.428571  0.142857  0.333333     12.000000
  0.190476  0.190476  0.333333     12.000000
  0.238095  0.190476  0.333333     24.000000
  0.285714  0.190476  0.333333     24.000000
  0.333333  0.190476  0.333333     24.000000
  0.380952  0.190476  0.333333     24.000000
  0.238095  0.238095  0.333333     12.000000
  0.285714  0.238095  0.333333     24.000000
  0.333333  0.238095  0.333333     24.000000
  0.380952  0.238095  0.333333     12.000000
  0.285714  0.285714  0.333333     12.000000
  0.333333  0.285714  0.333333     24.000000
  0.333333  0.333333  0.333333      4.000000
 
 Following cartesian coordinates:
            Coordinates               Weight
  0.000000  0.000000  0.000000      1.000000
  0.015478  0.008936  0.000000      6.000000
  0.030955  0.017872  0.000000      6.000000
  0.046433  0.026808  0.000000      6.000000
  0.061911  0.035744  0.000000      6.000000
  0.077389  0.044680  0.000000      6.000000
  0.092866  0.053616  0.000000      6.000000
  0.108344  0.062552  0.000000      6.000000
  0.123822  0.071488  0.000000      6.000000
  0.139299  0.080425  0.000000      6.000000
  0.154777  0.089361  0.000000      6.000000
  0.015478  0.026808  0.000000      6.000000
  0.030955  0.035744  0.000000     12.000000
  0.046433  0.044680  0.000000     12.000000
  0.061911  0.053616  0.000000     12.000000
  0.077389  0.062552  0.000000     12.000000
  0.092866  0.071488  0.000000     12.000000
  0.108344  0.080425  0.000000     12.000000
  0.123822  0.089361  0.000000     12.000000
  0.139299  0.098297  0.000000     12.000000
  0.154777  0.107233  0.000000      6.000000
  0.030955  0.053616  0.000000      6.000000
  0.046433  0.062552  0.000000     12.000000
  0.061911  0.071488  0.000000     12.000000
  0.077389  0.080425  0.000000     12.000000
  0.092866  0.089361  0.000000     12.000000
  0.108344  0.098297  0.000000     12.000000
  0.123822  0.107233  0.000000     12.000000
  0.139299  0.116169  0.000000     12.000000
  0.046433  0.080425  0.000000      6.000000
  0.061911  0.089361  0.000000     12.000000
  0.077389  0.098297  0.000000     12.000000
  0.092866  0.107233  0.000000     12.000000
  0.108344  0.116169  0.000000     12.000000
  0.123822  0.125105  0.000000     12.000000
  0.139299  0.134041  0.000000      6.000000
  0.061911  0.107233  0.000000      6.000000
  0.077389  0.116169  0.000000     12.000000
  0.092866  0.125105  0.000000     12.000000
  0.108344  0.134041  0.000000     12.000000
  0.123822  0.142977  0.000000     12.000000
  0.077389  0.134041  0.000000      6.000000
  0.092866  0.142977  0.000000     12.000000
  0.108344  0.151913  0.000000     12.000000
  0.123822  0.160849  0.000000      6.000000
  0.092866  0.160849  0.000000      6.000000
  0.108344  0.169785  0.000000     12.000000
  0.108344  0.187657  0.000000      2.000000
  0.000000  0.000000  0.022078      2.000000
  0.015478  0.008936  0.022078     12.000000
  0.030955  0.017872  0.022078     12.000000
  0.046433  0.026808  0.022078     12.000000
  0.061911  0.035744  0.022078     12.000000
  0.077389  0.044680  0.022078     12.000000
  0.092866  0.053616  0.022078     12.000000
  0.108344  0.062552  0.022078     12.000000
  0.123822  0.071488  0.022078     12.000000
  0.139299  0.080425  0.022078     12.000000
  0.154777  0.089361  0.022078     12.000000
  0.015478  0.026808  0.022078     12.000000
  0.030955  0.035744  0.022078     24.000000
  0.046433  0.044680  0.022078     24.000000
  0.061911  0.053616  0.022078     24.000000
  0.077389  0.062552  0.022078     24.000000
  0.092866  0.071488  0.022078     24.000000
  0.108344  0.080425  0.022078     24.000000
  0.123822  0.089361  0.022078     24.000000
  0.139299  0.098297  0.022078     24.000000
  0.154777  0.107233  0.022078     12.000000
  0.030955  0.053616  0.022078     12.000000
  0.046433  0.062552  0.022078     24.000000
  0.061911  0.071488  0.022078     24.000000
  0.077389  0.080425  0.022078     24.000000
  0.092866  0.089361  0.022078     24.000000
  0.108344  0.098297  0.022078     24.000000
  0.123822  0.107233  0.022078     24.000000
  0.139299  0.116169  0.022078     24.000000
  0.046433  0.080425  0.022078     12.000000
  0.061911  0.089361  0.022078     24.000000
  0.077389  0.098297  0.022078     24.000000
  0.092866  0.107233  0.022078     24.000000
  0.108344  0.116169  0.022078     24.000000
  0.123822  0.125105  0.022078     24.000000
  0.139299  0.134041  0.022078     12.000000
  0.061911  0.107233  0.022078     12.000000
  0.077389  0.116169  0.022078     24.000000
  0.092866  0.125105  0.022078     24.000000
  0.108344  0.134041  0.022078     24.000000
  0.123822  0.142977  0.022078     24.000000
  0.077389  0.134041  0.022078     12.000000
  0.092866  0.142977  0.022078     24.000000
  0.108344  0.151913  0.022078     24.000000
  0.123822  0.160849  0.022078     12.000000
  0.092866  0.160849  0.022078     12.000000
  0.108344  0.169785  0.022078     24.000000
  0.108344  0.187657  0.022078      4.000000
 


--------------------------------------------------------------------------------------------------------




 Dimension of arrays:
   k-points           NKPTS =     96   k-points in BZ     NKDIM =     96   number of bands    NBANDS=     31
   number of dos      NEDOS =    301   number of ions     NIONS =     12
   non local maximal  LDIM  =      4   non local SUM 2l+1 LMDIM =      8
   total plane-waves  NPLWV =  69120
   max r-space proj   IRMAX =   4085   max aug-charges    IRDMAX=  18870
   dimension x,y,z NGX =    24 NGY =   24 NGZ =  120
   dimension x,y,z NGXF=    48 NGYF=   48 NGZF=  240
   support grid    NGXF=    48 NGYF=   48 NGZF=  240
   ions per type =               6   6
   NGX,Y,Z   is equivalent  to a cutoff of  12.97, 12.97, 13.21 a.u.
   NGXF,Y,Z  is equivalent  to a cutoff of  25.94, 25.94, 26.43 a.u.

 SYSTEM =  ni3al                                   
 POSCAR =  Si6 C6                                  

 Startparameter for this run:
   NWRITE =      2    write-flag & timer
   PREC   = accura    normal or accurate (medium, high low for compatibility)
   ISTART =      0    job   : 0-new  1-cont  2-samecut
   ICHARG =      2    charge: 1-file 2-atom 10-const
   ISPIN  =      1    spin polarized calculation?
   LNONCOLLINEAR =      F non collinear calculations
   LSORBIT =      F    spin-orbit coupling
   INIWAV =      1    electr: 0-lowe 1-rand  2-diag
   LASPH  =      F    aspherical Exc in radial PAW
 Electronic Relaxation 1
   ENCUT  =  530.0 eV  38.95 Ry    6.24 a.u.   5.78  5.78 28.34*2*pi/ulx,y,z
   ENINI  =  530.0     initial cutoff
   ENAUG  =  644.9 eV  augmentation charge cutoff
   NELM   =    150;   NELMIN=  2; NELMDL= -5     # of ELM steps 
   EDIFF  = 0.1E-05   stopping-criterion for ELM
   LREAL  =      T    real-space projection
   NLSPLINE    = F    spline interpolate recip. space projectors
   LCOMPAT=      F    compatible to vasp.4.4
   GGA_COMPAT  = T    GGA compatible to vasp.4.4-vasp.4.6
   LMAXPAW     = -100 max onsite density
   LMAXMIX     =    4 max onsite mixed and CHGCAR
   VOSKOWN=      0    Vosko Wilk Nusair interpolation
   ROPT   =   -0.00025  -0.00025
 Ionic relaxation
   EDIFFG = -.1E-01   stopping-criterion for IOM
   NSW    =    300    number of steps for IOM
   NBLOCK =      1;   KBLOCK =    300    inner block; outer block 
   IBRION =      2    ionic relax: 0-MD 1-quasi-New 2-CG
   NFREE  =      1    steps in history (QN), initial steepest desc. (CG)
   ISIF   =      3    stress and relaxation
   IWAVPR =     11    prediction:  0-non 1-charg 2-wave 3-comb
   ISYM   =      2    0-nonsym 1-usesym 2-fastsym
   LCORR  =      T    Harris-Foulkes like correction to forces

   POTIM  = 0.5000    time-step for ionic-motion
   TEIN   =    0.0    initial temperature
   TEBEG  =    0.0;   TEEND  =   0.0 temperature during run
   SMASS  =  -3.00    Nose mass-parameter (am)
   estimated Nose-frequenzy (Omega)   =  0.10E-29 period in steps = 0.13E+47 mass=  -0.216E-27a.u.
   SCALEE = 1.0000    scale energy and forces
   NPACO  =    256;   APACO  = 10.0  distance and # of slots for P.C.
   PSTRESS=    0.0 pullay stress

  Mass of Ions in am
   POMASS =  28.09 12.01
  Ionic Valenz
   ZVAL   =   4.00  4.00
  Atomic Wigner-Seitz radii
   RWIGS  =  -1.00 -1.00
  virtual crystal weights 
   VCA    =   1.00  1.00
   NELECT =      48.0000    total number of electrons
   NUPDOWN=      -1.0000    fix difference up-down

 DOS related values:
   EMIN   =  10.00;   EMAX   =-10.00  energy-range for DOS
   EFERMI =   0.00
   ISMEAR =     0;   SIGMA  =   0.10  broadening in eV -4-tet -1-fermi 0-gaus

 Electronic relaxation 2 (details)
   IALGO  =     68    algorithm
   LDIAG  =      T    sub-space diagonalisation (order eigenvalues)
   LSUBROT=      F    optimize rotation matrix (better conditioning)
   TURBO    =      0    0=normal 1=particle mesh
   IRESTART =      0    0=no restart 2=restart with 2 vectors
   NREBOOT  =      0    no. of reboots
   NMIN     =      0    reboot dimension
   EREF     =   0.00    reference energy to select bands
   IMIX   =      4    mixing-type and parameters
     AMIX     =   0.40;   BMIX     =  1.00
     AMIX_MAG =   1.60;   BMIX_MAG =  1.00
     AMIN     =   0.01
     WC   =   100.;   INIMIX=   1;  MIXPRE=   1;  MAXMIX= -45

 Intra band minimization:
   WEIMIN = 0.0010     energy-eigenvalue tresh-hold
   EBREAK =  0.81E-08  absolut break condition
   DEPER  =   0.30     relativ break condition  

   TIME   =   0.40     timestep for ELM

  volume/ion in A,a.u.               =      10.31        69.60
  Fermi-wavevector in a.u.,A,eV,Ry     =   1.193865  2.256077 19.392557  1.425313
  Thomas-Fermi vector in A             =   2.329869
 
 Write flags
   LWAVE        =      F    write WAVECAR
   LDOWNSAMPLE  =      F    k-point downsampling of WAVECAR
   LCHARG       =      F    write CHGCAR
   LVTOT        =      F    write LOCPOT, total local potential
   LVHAR        =      F    write LOCPOT, Hartree potential only
   LELF         =      F    write electronic localiz. function (ELF)
   LORBIT       =      0    0 simple, 1 ext, 2 COOP (PROOUT), +10 PAW based schemes


 Dipole corrections
   LMONO  =      F    monopole corrections only (constant potential shift)
   LDIPOL =      F    correct potential (dipole corrections)
   IDIPOL =      0    1-x, 2-y, 3-z, 4-all directions 
   EPSILON=  1.0000000 bulk dielectric constant

 Exchange correlation treatment:
   GGA     =    --    GGA type
   LEXCH   =     8    internal setting for exchange type
   LIBXC   =     F    Libxc                    
   VOSKOWN =     0    Vosko Wilk Nusair interpolation
   LHFCALC =     F    Hartree Fock is set to
   LHFONE  =     F    Hartree Fock one center treatment
   AEXX    =    0.0000 exact exchange contribution

 Linear response parameters
   LEPSILON=     F    determine dielectric tensor
   LRPA    =     F    only Hartree local field effects (RPA)
   LNABLA  =     F    use nabla operator in PAW spheres
   LVEL    =     F    velocity operator in full k-point grid
   CSHIFT  =0.1000    complex shift for real part using Kramers Kronig
   OMEGAMAX=  -1.0    maximum frequency
   DEG_THRESHOLD= 0.2000000E-02 threshold for treating states as degnerate
   RTIME   =   -0.100 relaxation time in fs
  (WPLASMAI=    0.000 imaginary part of plasma frequency in eV, 0.658/RTIME)
   DFIELD  = 0.0000000 0.0000000 0.0000000 field for delta impulse in time
 
  Optional k-point grid parameters
   LKPOINTS_OPT  =     F    use optional k-point grid
   KPOINTS_OPT_MODE=     1    mode for optional k-point grid
 
 Orbital magnetization related:
   ORBITALMAG=     F  switch on orbital magnetization
   LCHIMAG   =     F  perturbation theory with respect to B field
   DQ        =  0.001000  dq finite difference perturbation B field
   LLRAUG    =     F  two centre corrections for induced B field



--------------------------------------------------------------------------------------------------------


 conjugate gradient relaxation of ions
 charge density and potential will be updated during run
 non-spin polarized calculation
 RMM-DIIS sequential band-by-band and
  variant of blocked Davidson during initial phase
 perform sub-space diagonalisation
    before iterative eigenvector-optimisation
 modified Broyden-mixing scheme, WC =      100.0
 initial mixing is a Kerker type mixing with AMIX =  0.4000 and BMIX =      1.0000
 Hartree-type preconditioning will be used
 using additional bands            7
 real space projection scheme for non local part
 use partial core corrections
 calculate Harris-corrections to forces 
   (improved forces if not selfconsistent)
 use gradient corrections 
 use of overlap-Matrix (Vanderbilt PP)
 Gauss-broadening in eV      SIGMA  =   0.10


--------------------------------------------------------------------------------------------------------


  energy-cutoff  :      530.00
  volume of cell :      123.77
      direct lattice vectors                 reciprocal lattice vectors
     3.076621056  0.000000000  0.000000000     0.325031904  0.187657257  0.000000000
    -1.538310528  2.664431992  0.000000000     0.000000000  0.375314515  0.000000000
     0.000000000  0.000000000 15.098084450     0.000000000  0.000000000  0.066233568

  length of vectors
     3.076621056  3.076621056 15.098084450     0.375314515  0.375314515  0.066233568


 
 k-points in units of 2pi/SCALE and weight: K-Spacing Value to Generate K-Mesh: 0.02
   0.00000000  0.00000000  0.00000000       0.001
   0.01547771  0.00893606  0.00000000       0.005
   0.03095542  0.01787212  0.00000000       0.005
   0.04643313  0.02680818  0.00000000       0.005
   0.06191084  0.03574424  0.00000000       0.005
   0.07738855  0.04468030  0.00000000       0.005
   0.09286626  0.05361636  0.00000000       0.005
   0.10834397  0.06255242  0.00000000       0.005
   0.12382168  0.07148848  0.00000000       0.005
   0.13929939  0.08042454  0.00000000       0.005
   0.15477710  0.08936060  0.00000000       0.005
   0.01547771  0.02680818  0.00000000       0.005
   0.03095542  0.03574424  0.00000000       0.009
   0.04643313  0.04468030  0.00000000       0.009
   0.06191084  0.05361636  0.00000000       0.009
   0.07738855  0.06255242  0.00000000       0.009
   0.09286626  0.07148848  0.00000000       0.009
   0.10834397  0.08042454  0.00000000       0.009
   0.12382168  0.08936060  0.00000000       0.009
   0.13929939  0.09829666  0.00000000       0.009
   0.15477710  0.10723272  0.00000000       0.005
   0.03095542  0.05361636  0.00000000       0.005
   0.04643313  0.06255242  0.00000000       0.009
   0.06191084  0.07148848  0.00000000       0.009
   0.07738855  0.08042454  0.00000000       0.009
   0.09286626  0.08936060  0.00000000       0.009
   0.10834397  0.09829666  0.00000000       0.009
   0.12382168  0.10723272  0.00000000       0.009
   0.13929939  0.11616878  0.00000000       0.009
   0.04643313  0.08042454  0.00000000       0.005
   0.06191084  0.08936060  0.00000000       0.009
   0.07738855  0.09829666  0.00000000       0.009
   0.09286626  0.10723272  0.00000000       0.009
   0.10834397  0.11616878  0.00000000       0.009
   0.12382168  0.12510484  0.00000000       0.009
   0.13929939  0.13404090  0.00000000       0.005
   0.06191084  0.10723272  0.00000000       0.005
   0.07738855  0.11616878  0.00000000       0.009
   0.09286626  0.12510484  0.00000000       0.009
   0.10834397  0.13404090  0.00000000       0.009
   0.12382168  0.14297696  0.00000000       0.009
   0.07738855  0.13404090  0.00000000       0.005
   0.09286626  0.14297696  0.00000000       0.009
   0.10834397  0.15191302  0.00000000       0.009
   0.12382168  0.16084908  0.00000000       0.005
   0.09286626  0.16084908  0.00000000       0.005
   0.10834397  0.16978514  0.00000000       0.009
   0.10834397  0.18765726  0.00000000       0.002
   0.00000000  0.00000000  0.02207786       0.002
   0.01547771  0.00893606  0.02207786       0.009
   0.03095542  0.01787212  0.02207786       0.009
   0.04643313  0.02680818  0.02207786       0.009
   0.06191084  0.03574424  0.02207786       0.009
   0.07738855  0.04468030  0.02207786       0.009
   0.09286626  0.05361636  0.02207786       0.009
   0.10834397  0.06255242  0.02207786       0.009
   0.12382168  0.07148848  0.02207786       0.009
   0.13929939  0.08042454  0.02207786       0.009
   0.15477710  0.08936060  0.02207786       0.009
   0.01547771  0.02680818  0.02207786       0.009
   0.03095542  0.03574424  0.02207786       0.018
   0.04643313  0.04468030  0.02207786       0.018
   0.06191084  0.05361636  0.02207786       0.018
   0.07738855  0.06255242  0.02207786       0.018
   0.09286626  0.07148848  0.02207786       0.018
   0.10834397  0.08042454  0.02207786       0.018
   0.12382168  0.08936060  0.02207786       0.018
   0.13929939  0.09829666  0.02207786       0.018
   0.15477710  0.10723272  0.02207786       0.009
   0.03095542  0.05361636  0.02207786       0.009
   0.04643313  0.06255242  0.02207786       0.018
   0.06191084  0.07148848  0.02207786       0.018
   0.07738855  0.08042454  0.02207786       0.018
   0.09286626  0.08936060  0.02207786       0.018
   0.10834397  0.09829666  0.02207786       0.018
   0.12382168  0.10723272  0.02207786       0.018
   0.13929939  0.11616878  0.02207786       0.018
   0.04643313  0.08042454  0.02207786       0.009
   0.06191084  0.08936060  0.02207786       0.018
   0.07738855  0.09829666  0.02207786       0.018
   0.09286626  0.10723272  0.02207786       0.018
   0.10834397  0.11616878  0.02207786       0.018
   0.12382168  0.12510484  0.02207786       0.018
   0.13929939  0.13404090  0.02207786       0.009
   0.06191084  0.10723272  0.02207786       0.009
   0.07738855  0.11616878  0.02207786       0.018
   0.09286626  0.12510484  0.02207786       0.018
   0.10834397  0.13404090  0.02207786       0.018
   0.12382168  0.14297696  0.02207786       0.018
   0.07738855  0.13404090  0.02207786       0.009
   0.09286626  0.14297696  0.02207786       0.018
   0.10834397  0.15191302  0.02207786       0.018
   0.12382168  0.16084908  0.02207786       0.009
   0.09286626  0.16084908  0.02207786       0.009
   0.10834397  0.16978514  0.02207786       0.018
   0.10834397  0.18765726  0.02207786       0.003
 
 k-points in reciprocal lattice and weights: K-Spacing Value to Generate K-Mesh: 0.02
   0.00000000  0.00000000  0.00000000       0.001
   0.04761905  0.00000000  0.00000000       0.005
   0.09523810  0.00000000  0.00000000       0.005
   0.14285714  0.00000000  0.00000000       0.005
   0.19047619  0.00000000  0.00000000       0.005
   0.23809524  0.00000000  0.00000000       0.005
   0.28571429  0.00000000  0.00000000       0.005
   0.33333333  0.00000000  0.00000000       0.005
   0.38095238  0.00000000  0.00000000       0.005
   0.42857143  0.00000000  0.00000000       0.005
   0.47619048  0.00000000  0.00000000       0.005
   0.04761905  0.04761905  0.00000000       0.005
   0.09523810  0.04761905  0.00000000       0.009
   0.14285714  0.04761905  0.00000000       0.009
   0.19047619  0.04761905  0.00000000       0.009
   0.23809524  0.04761905  0.00000000       0.009
   0.28571429  0.04761905  0.00000000       0.009
   0.33333333  0.04761905  0.00000000       0.009
   0.38095238  0.04761905  0.00000000       0.009
   0.42857143  0.04761905  0.00000000       0.009
   0.47619048  0.04761905  0.00000000       0.005
   0.09523810  0.09523810  0.00000000       0.005
   0.14285714  0.09523810  0.00000000       0.009
   0.19047619  0.09523810  0.00000000       0.009
   0.23809524  0.09523810  0.00000000       0.009
   0.28571429  0.09523810  0.00000000       0.009
   0.33333333  0.09523810  0.00000000       0.009
   0.38095238  0.09523810  0.00000000       0.009
   0.42857143  0.09523810  0.00000000       0.009
   0.14285714  0.14285714  0.00000000       0.005
   0.19047619  0.14285714  0.00000000       0.009
   0.23809524  0.14285714  0.00000000       0.009
   0.28571429  0.14285714  0.00000000       0.009
   0.33333333  0.14285714  0.00000000       0.009
   0.38095238  0.14285714  0.00000000       0.009
   0.42857143  0.14285714  0.00000000       0.005
   0.19047619  0.19047619  0.00000000       0.005
   0.23809524  0.19047619  0.00000000       0.009
   0.28571429  0.19047619  0.00000000       0.009
   0.33333333  0.19047619  0.00000000       0.009
   0.38095238  0.19047619  0.00000000       0.009
   0.23809524  0.23809524  0.00000000       0.005
   0.28571429  0.23809524  0.00000000       0.009
   0.33333333  0.23809524  0.00000000       0.009
   0.38095238  0.23809524  0.00000000       0.005
   0.28571429  0.28571429  0.00000000       0.005
   0.33333333  0.28571429  0.00000000       0.009
   0.33333333  0.33333333  0.00000000       0.002
   0.00000000  0.00000000  0.33333333       0.002
   0.04761905  0.00000000  0.33333333       0.009
   0.09523810  0.00000000  0.33333333       0.009
   0.14285714  0.00000000  0.33333333       0.009
   0.19047619  0.00000000  0.33333333       0.009
   0.23809524  0.00000000  0.33333333       0.009
   0.28571429  0.00000000  0.33333333       0.009
   0.33333333  0.00000000  0.33333333       0.009
   0.38095238  0.00000000  0.33333333       0.009
   0.42857143  0.00000000  0.33333333       0.009
   0.47619048  0.00000000  0.33333333       0.009
   0.04761905  0.04761905  0.33333333       0.009
   0.09523810  0.04761905  0.33333333       0.018
   0.14285714  0.04761905  0.33333333       0.018
   0.19047619  0.04761905  0.33333333       0.018
   0.23809524  0.04761905  0.33333333       0.018
   0.28571429  0.04761905  0.33333333       0.018
   0.33333333  0.04761905  0.33333333       0.018
   0.38095238  0.04761905  0.33333333       0.018
   0.42857143  0.04761905  0.33333333       0.018
   0.47619048  0.04761905  0.33333333       0.009
   0.09523810  0.09523810  0.33333333       0.009
   0.14285714  0.09523810  0.33333333       0.018
   0.19047619  0.09523810  0.33333333       0.018
   0.23809524  0.09523810  0.33333333       0.018
   0.28571429  0.09523810  0.33333333       0.018
   0.33333333  0.09523810  0.33333333       0.018
   0.38095238  0.09523810  0.33333333       0.018
   0.42857143  0.09523810  0.33333333       0.018
   0.14285714  0.14285714  0.33333333       0.009
   0.19047619  0.14285714  0.33333333       0.018
   0.23809524  0.14285714  0.33333333       0.018
   0.28571429  0.14285714  0.33333333       0.018
   0.33333333  0.14285714  0.33333333       0.018
   0.38095238  0.14285714  0.33333333       0.018
   0.42857143  0.14285714  0.33333333       0.009
   0.19047619  0.19047619  0.33333333       0.009
   0.23809524  0.19047619  0.33333333       0.018
   0.28571429  0.19047619  0.33333333       0.018
   0.33333333  0.19047619  0.33333333       0.018
   0.38095238  0.19047619  0.33333333       0.018
   0.23809524  0.23809524  0.33333333       0.009
   0.28571429  0.23809524  0.33333333       0.018
   0.33333333  0.23809524  0.33333333       0.018
   0.38095238  0.23809524  0.33333333       0.009
   0.28571429  0.28571429  0.33333333       0.009
   0.33333333  0.28571429  0.33333333       0.018
   0.33333333  0.33333333  0.33333333       0.003
 
 position of ions in fractional coordinates (direct lattice) 
   0.00000000  0.00000000  0.49972942
   0.00000000  0.00000000  0.99972942
   0.33333334  0.66666669  0.16650060
   0.66666666  0.33333331  0.66650060
   0.33333334  0.66666669  0.83298615
   0.66666666  0.33333331  0.33298615
   0.00000000  0.00000000  0.37436641
   0.00000000  0.00000000  0.87436641
   0.33333334  0.66666669  0.04152164
   0.66666666  0.33333331  0.54152164
   0.33333334  0.66666669  0.70799678
   0.66666666  0.33333331  0.20799678
 
 position of ions in cartesian coordinates  (Angst):
   0.00000000  0.00000000  7.54495699
   0.00000000  0.00000000 15.09399921
  -0.00000000  1.77628805  2.51384012
   1.53831053  0.88814394 10.06288234
  -0.00000000  1.77628805 12.57649524
   1.53831053  0.88814394  5.02745301
   0.00000000  0.00000000  5.65221567
   0.00000000  0.00000000 13.20125790
  -0.00000000  1.77628805  0.62689723
   1.53831053  0.88814394  8.17593945
  -0.00000000  1.77628805 10.68939517
   1.53831053  0.88814394  3.14035295
 


--------------------------------------------------------------------------------------------------------


 k-point   1 :   0.0000 0.0000 0.0000  plane waves:    3399
 k-point   2 :   0.0476 0.0000 0.0000  plane waves:    3402
 k-point   3 :   0.0952 0.0000 0.0000  plane waves:    3412
 k-point   4 :   0.1429 0.0000 0.0000  plane waves:    3422
 k-point   5 :   0.1905 0.0000 0.0000  plane waves:    3422
 k-point   6 :   0.2381 0.0000 0.0000  plane waves:    3432
 k-point   7 :   0.2857 0.0000 0.0000  plane waves:    3436
 k-point   8 :   0.3333 0.0000 0.0000  plane waves:    3442
 k-point   9 :   0.3810 0.0000 0.0000  plane waves:    3446
 k-point  10 :   0.4286 0.0000 0.0000  plane waves:    3444
 k-point  11 :   0.4762 0.0000 0.0000  plane waves:    3458
 k-point  12 :   0.0476 0.0476 0.0000  plane waves:    3415
 k-point  13 :   0.0952 0.0476 0.0000  plane waves:    3416
 k-point  14 :   0.1429 0.0476 0.0000  plane waves:    3430
 k-point  15 :   0.1905 0.0476 0.0000  plane waves:    3421
 k-point  16 :   0.2381 0.0476 0.0000  plane waves:    3430
 k-point  17 :   0.2857 0.0476 0.0000  plane waves:    3429
 k-point  18 :   0.3333 0.0476 0.0000  plane waves:    3445
 k-point  19 :   0.3810 0.0476 0.0000  plane waves:    3441
 k-point  20 :   0.4286 0.0476 0.0000  plane waves:    3442
 k-point  21 :   0.4762 0.0476 0.0000  plane waves:    3458
 k-point  22 :   0.0952 0.0952 0.0000  plane waves:    3403
 k-point  23 :   0.1429 0.0952 0.0000  plane waves:    3415
 k-point  24 :   0.1905 0.0952 0.0000  plane waves:    3425
 k-point  25 :   0.2381 0.0952 0.0000  plane waves:    3427
 k-point  26 :   0.2857 0.0952 0.0000  plane waves:    3436
 k-point  27 :   0.3333 0.0952 0.0000  plane waves:    3443
 k-point  28 :   0.3810 0.0952 0.0000  plane waves:    3434
 k-point  29 :   0.4286 0.0952 0.0000  plane waves:    3438
 k-point  30 :   0.1429 0.1429 0.0000  plane waves:    3412
 k-point  31 :   0.1905 0.1429 0.0000  plane waves:    3415
 k-point  32 :   0.2381 0.1429 0.0000  plane waves:    3432
 k-point  33 :   0.2857 0.1429 0.0000  plane waves:    3439
 k-point  34 :   0.3333 0.1429 0.0000  plane waves:    3444
 k-point  35 :   0.3810 0.1429 0.0000  plane waves:    3431
 k-point  36 :   0.4286 0.1429 0.0000  plane waves:    3432
 k-point  37 :   0.1905 0.1905 0.0000  plane waves:    3426
 k-point  38 :   0.2381 0.1905 0.0000  plane waves:    3436
 k-point  39 :   0.2857 0.1905 0.0000  plane waves:    3431
 k-point  40 :   0.3333 0.1905 0.0000  plane waves:    3428
 k-point  41 :   0.3810 0.1905 0.0000  plane waves:    3430
 k-point  42 :   0.2381 0.2381 0.0000  plane waves:    3412
 k-point  43 :   0.2857 0.2381 0.0000  plane waves:    3411
 k-point  44 :   0.3333 0.2381 0.0000  plane waves:    3419
 k-point  45 :   0.3810 0.2381 0.0000  plane waves:    3428
 k-point  46 :   0.2857 0.2857 0.0000  plane waves:    3424
 k-point  47 :   0.3333 0.2857 0.0000  plane waves:    3413
 k-point  48 :   0.3333 0.3333 0.0000  plane waves:    3408
 k-point  49 :   0.0000 0.0000 0.3333  plane waves:    3417
 k-point  50 :   0.0476 0.0000 0.3333  plane waves:    3422
 k-point  51 :   0.0952 0.0000 0.3333  plane waves:    3427
 k-point  52 :   0.1429 0.0000 0.3333  plane waves:    3426
 k-point  53 :   0.1905 0.0000 0.3333  plane waves:    3420
 k-point  54 :   0.2381 0.0000 0.3333  plane waves:    3420
 k-point  55 :   0.2857 0.0000 0.3333  plane waves:    3431
 k-point  56 :   0.3333 0.0000 0.3333  plane waves:    3440
 k-point  57 :   0.3810 0.0000 0.3333  plane waves:    3441
 k-point  58 :   0.4286 0.0000 0.3333  plane waves:    3438
 k-point  59 :   0.4762 0.0000 0.3333  plane waves:    3438
 k-point  60 :   0.0476 0.0476 0.3333  plane waves:    3418
 k-point  61 :   0.0952 0.0476 0.3333  plane waves:    3419
 k-point  62 :   0.1429 0.0476 0.3333  plane waves:    3418
 k-point  63 :   0.1905 0.0476 0.3333  plane waves:    3428
 k-point  64 :   0.2381 0.0476 0.3333  plane waves:    3424
 k-point  65 :   0.2857 0.0476 0.3333  plane waves:    3433
 k-point  66 :   0.3333 0.0476 0.3333  plane waves:    3443
 k-point  67 :   0.3810 0.0476 0.3333  plane waves:    3443
 k-point  68 :   0.4286 0.0476 0.3333  plane waves:    3442
 k-point  69 :   0.4762 0.0476 0.3333  plane waves:    3444
 k-point  70 :   0.0952 0.0952 0.3333  plane waves:    3415
 k-point  71 :   0.1429 0.0952 0.3333  plane waves:    3428
 k-point  72 :   0.1905 0.0952 0.3333  plane waves:    3427
 k-point  73 :   0.2381 0.0952 0.3333  plane waves:    3429
 k-point  74 :   0.2857 0.0952 0.3333  plane waves:    3434
 k-point  75 :   0.3333 0.0952 0.3333  plane waves:    3447
 k-point  76 :   0.3810 0.0952 0.3333  plane waves:    3438
 k-point  77 :   0.4286 0.0952 0.3333  plane waves:    3434
 k-point  78 :   0.1429 0.1429 0.3333  plane waves:    3416
 k-point  79 :   0.1905 0.1429 0.3333  plane waves:    3420
 k-point  80 :   0.2381 0.1429 0.3333  plane waves:    3435
 k-point  81 :   0.2857 0.1429 0.3333  plane waves:    3433
 k-point  82 :   0.3333 0.1429 0.3333  plane waves:    3432
 k-point  83 :   0.3810 0.1429 0.3333  plane waves:    3436
 k-point  84 :   0.4286 0.1429 0.3333  plane waves:    3421
 k-point  85 :   0.1905 0.1905 0.3333  plane waves:    3426
 k-point  86 :   0.2381 0.1905 0.3333  plane waves:    3423
 k-point  87 :   0.2857 0.1905 0.3333  plane waves:    3433
 k-point  88 :   0.3333 0.1905 0.3333  plane waves:    3432
 k-point  89 :   0.3810 0.1905 0.3333  plane waves:    3422
 k-point  90 :   0.2381 0.2381 0.3333  plane waves:    3421
 k-point  91 :   0.2857 0.2381 0.3333  plane waves:    3418
 k-point  92 :   0.3333 0.2381 0.3333  plane waves:    3420
 k-point  93 :   0.3810 0.2381 0.3333  plane waves:    3413
 k-point  94 :   0.2857 0.2857 0.3333  plane waves:    3420
 k-point  95 :   0.3333 0.2857 0.3333  plane waves:    3416
 k-point  96 :   0.3333 0.3333 0.3333  plane waves:    3423

 maximum and minimum number of plane-waves per node :      3458     3399

 maximum number of plane-waves:      3458
 maximum index in each direction: 
   IXMAX=    5   IYMAX=    5   IZMAX=   28
   IXMIN=   -6   IYMIN=   -6   IZMIN=  -28


 serial   3D FFT for wavefunctions
 parallel 3D FFT for charge:
    minimum data exchange during FFTs selected (reduces bandwidth)


 total amount of memory used by VASP MPI-rank0   128908. kBytes
=======================================================================

   base      :      30000. kBytes
   nonlr-proj:       3678. kBytes
   fftplans  :      18964. kBytes
   grid      :      33924. kBytes
   one-center:         36. kBytes
   wavefun   :      42306. kBytes
 
     INWAV:  cpu time      0.0003: real time      0.0000
 Broyden mixing: mesh for mixing (old mesh)
   NGX = 11   NGY = 11   NGZ = 57
  (NGX  = 48   NGY  = 48   NGZ  =240)
  gives a total of   6897 points

 initial charge density was supplied:
 charge density of overlapping atoms calculated
 number of electron      48.0000000 magnetization 
 keeping initial charge density in first step


--------------------------------------------------------------------------------------------------------


 Maximum index for non-local projection operator         3955
 Maximum index for augmentation-charges        18133 (set IRDMAX)


--------------------------------------------------------------------------------------------------------


 First call to EWALD:  gamma=   0.356
 Maximum number of real-space cells 5x 5x 1
 Maximum number of reciprocal cells 2x 2x 7

    FEWALD:  cpu time      0.0040: real time      0.0020


--------------------------------------- Iteration      1(   1)  ---------------------------------------


    POTLOK:  cpu time      0.8134: real time      0.1267
    SETDIJ:  cpu time      0.1530: real time      0.0219
     EDDAV:  cpu time     10.4901: real time      1.6090
       DOS:  cpu time      0.0243: real time      0.0035
    --------------------------------------------
      LOOP:  cpu time     11.4813: real time      1.7612

 eigenvalue-minimisations  :  5952
 total energy-change (2. order) : 0.1500544E+03  (-0.2238734E+04)
 number of electron      48.0000000 magnetization 
 augmentation part       48.0000000 magnetization 

 Free energy of the ion-electron system (eV)
  ---------------------------------------------------
  alpha Z        PSCENC =        66.98390366
  Ewald energy   TEWEN  =     -1709.66497520
  -Hartree energ DENC   =      -124.96193871
  -exchange      EXHF   =         0.00000000
  -V(xc)+E(xc)   XCENC  =        31.29639965
  PAW double counting   =       424.85428292     -326.19711695
  entropy T*S    EENTRO =        -0.00848939
  eigenvalues    EBANDS =       286.45946924
  atomic energy  EATOM  =      1501.29283077
  Solvation  Ediel_sol  =         0.00000000
  ---------------------------------------------------
  free energy    TOTEN  =       150.05436599 eV

  energy without entropy =      150.06285537  energy(sigma->0) =      150.05861068


--------------------------------------------------------------------------------------------------------




--------------------------------------- Iteration      1(   2)  ---------------------------------------


     EDDAV:  cpu time     13.7354: real time      1.9754
       DOS:  cpu time      0.0140: real time      0.0020
    --------------------------------------------
      LOOP:  cpu time     13.7491: real time      1.9774

 eigenvalue-minimisations  :  8023
 total energy-change (2. order) :-0.2388276E+03  (-0.2268527E+03)
 number of electron      48.0000000 magnetization 
 augmentation part       48.0000000 magnetization 

 Free energy of the ion-electron system (eV)
  ---------------------------------------------------
  alpha Z        PSCENC =        66.98390366
  Ewald energy   TEWEN  =     -1709.66497520
  -Hartree energ DENC   =      -124.96193871
  -exchange      EXHF   =         0.00000000
  -V(xc)+E(xc)   XCENC  =        31.29639965
  PAW double counting   =       424.85428292     -326.19711695
  entropy T*S    EENTRO =        -0.00000000
  eigenvalues    EBANDS =        47.62340221
  atomic energy  EATOM  =      1501.29283077
  Solvation  Ediel_sol  =         0.00000000
  ---------------------------------------------------
  free energy    TOTEN  =       -88.77321165 eV

  energy without entropy =      -88.77321165  energy(sigma->0) =      -88.77321165


--------------------------------------------------------------------------------------------------------




--------------------------------------- Iteration      1(   3)  ---------------------------------------


     EDDAV:  cpu time     12.6782: real time      1.8376
       DOS:  cpu time      0.0140: real time      0.0020
    --------------------------------------------
      LOOP:  cpu time     12.6922: real time      1.8396

 eigenvalue-minimisations  :  7296
 total energy-change (2. order) :-0.1254413E+02  (-0.1246254E+02)
 number of electron      48.0000000 magnetization 
 augmentation part       48.0000000 magnetization 

 Free energy of the ion-electron system (eV)
  ---------------------------------------------------
  alpha Z        PSCENC =        66.98390366
  Ewald energy   TEWEN  =     -1709.66497520
  -Hartree energ DENC   =      -124.96193871
  -exchange      EXHF   =         0.00000000
  -V(xc)+E(xc)   XCENC  =        31.29639965
  PAW double counting   =       424.85428292     -326.19711695
  entropy T*S    EENTRO =        -0.00000000
  eigenvalues    EBANDS =        35.07927691
  atomic energy  EATOM  =      1501.29283077
  Solvation  Ediel_sol  =         0.00000000
  ---------------------------------------------------
  free energy    TOTEN  =      -101.31733696 eV

  energy without entropy =     -101.31733696  energy(sigma->0) =     -101.31733696


--------------------------------------------------------------------------------------------------------




--------------------------------------- Iteration      1(   4)  ---------------------------------------


     EDDAV:  cpu time     12.2989: real time      1.7779
       DOS:  cpu time      0.0141: real time      0.0020
    --------------------------------------------
      LOOP:  cpu time     12.3129: real time      1.7799

 eigenvalue-minimisations  :  7401
 total energy-change (2. order) :-0.2283307E+00  (-0.2278573E+00)
 number of electron      48.0000000 magnetization 
 augmentation part       48.0000000 magnetization 

 Free energy of the ion-electron system (eV)
  ---------------------------------------------------
  alpha Z        PSCENC =        66.98390366
  Ewald energy   TEWEN  =     -1709.66497520
  -Hartree energ DENC   =      -124.96193871
  -exchange      EXHF   =         0.00000000
  -V(xc)+E(xc)   XCENC  =        31.29639965
  PAW double counting   =       424.85428292     -326.19711695
  entropy T*S    EENTRO =        -0.00000000
  eigenvalues    EBANDS =        34.85094620
  atomic energy  EATOM  =      1501.29283077
  Solvation  Ediel_sol  =         0.00000000
  ---------------------------------------------------
  free energy    TOTEN  =      -101.54566766 eV

  energy without entropy =     -101.54566766  energy(sigma->0) =     -101.54566766


--------------------------------------------------------------------------------------------------------




--------------------------------------- Iteration      1(   5)  ---------------------------------------


     EDDAV:  cpu time     11.2852: real time      1.6308
       DOS:  cpu time      0.0141: real time      0.0020
    CHARGE:  cpu time      0.4574: real time      0.0659
    MIXING:  cpu time      0.0511: real time      0.0074
    --------------------------------------------
      LOOP:  cpu time     11.8081: real time      1.7062

 eigenvalue-minimisations  :  7221
 total energy-change (2. order) :-0.5545453E-02  (-0.5543183E-02)
 number of electron      47.9999999 magnetization 
 augmentation part       -0.2849609 magnetization 

 Broyden mixing:
  rms(total) = 0.17200E+01    rms(broyden)= 0.17197E+01
  rms(prec ) = 0.20632E+01
  weight for this iteration     100.00

 Free energy of the ion-electron system (eV)
  ---------------------------------------------------
  alpha Z        PSCENC =        66.98390366
  Ewald energy   TEWEN  =     -1709.66497520
  -Hartree energ DENC   =      -124.96193871
  -exchange      EXHF   =         0.00000000
  -V(xc)+E(xc)   XCENC  =        31.29639965
  PAW double counting   =       424.85428292     -326.19711695
  entropy T*S    EENTRO =        -0.00000000
  eigenvalues    EBANDS =        34.84540075
  atomic energy  EATOM  =      1501.29283077
  Solvation  Ediel_sol  =         0.00000000
  ---------------------------------------------------
  free energy    TOTEN  =      -101.55121312 eV

  energy without entropy =     -101.55121312  energy(sigma->0) =     -101.55121312


--------------------------------------------------------------------------------------------------------




--------------------------------------- Iteration      1(   6)  ---------------------------------------


    POTLOK:  cpu time      0.7218: real time      0.1035
    SETDIJ:  cpu time      0.0914: real time      0.0132
    EDDIAG:  cpu time      0.6398: real time      0.0923
  RMM-DIIS:  cpu time      3.1349: real time      1.1332
    ORTHCH:  cpu time      0.0843: real time      0.0425
       DOS:  cpu time      0.0042: real time      0.0021
    CHARGE:  cpu time      0.2420: real time      0.0608
    MIXING:  cpu time      0.0490: real time      0.0070
    --------------------------------------------
      LOOP:  cpu time      4.9675: real time      1.4546

 eigenvalue-minimisations  :  5952
 total energy-change (2. order) : 0.1128503E+02  (-0.3256547E+01)
 number of electron      48.0000000 magnetization 
 augmentation part       -0.5466594 magnetization 

 Broyden mixing:
  rms(total) = 0.56036E+00    rms(broyden)= 0.56033E+00
  rms(prec ) = 0.65479E+00
  weight for this iteration     100.00

 eigenvalues of (default mixing * dielectric matrix)
  average eigenvalue GAMMA=   1.3082
  1.3082

 Free energy of the ion-electron system (eV)
  ---------------------------------------------------
  alpha Z        PSCENC =        66.98390366
  Ewald energy   TEWEN  =     -1709.66497520
  -Hartree energ DENC   =      -172.72815179
  -exchange      EXHF   =         0.00000000
  -V(xc)+E(xc)   XCENC  =        35.52742663
  PAW double counting   =       537.79828325     -439.98631858
  entropy T*S    EENTRO =        -0.00000000
  eigenvalues    EBANDS =        90.51082185
  atomic energy  EATOM  =      1501.29283077
  Solvation  Ediel_sol  =         0.00000000
  ---------------------------------------------------
  free energy    TOTEN  =       -90.26617942 eV

  energy without entropy =      -90.26617942  energy(sigma->0) =      -90.26617942


--------------------------------------------------------------------------------------------------------




--------------------------------------- Iteration      1(   7)  ---------------------------------------


    POTLOK:  cpu time      0.7037: real time      0.1012
    SETDIJ:  cpu time      0.0881: real time      0.0127
    EDDIAG:  cpu time      0.6151: real time      0.0885
  RMM-DIIS:  cpu time      3.0768: real time      1.1073
    ORTHCH:  cpu time      0.0841: real time      0.0424
       DOS:  cpu time      0.0043: real time      0.0021
    CHARGE:  cpu time      0.2425: real time      0.0609
    MIXING:  cpu time      0.0463: real time      0.0066
    --------------------------------------------
      LOOP:  cpu time      4.8609: real time      1.4217

 eigenvalue-minimisations  :  5952
 total energy-change (2. order) :-0.2238578E+00  (-0.1274967E+01)
 number of electron      48.0000001 magnetization 
 augmentation part       -0.7557044 magnetization 

 Broyden mixing:
  rms(total) = 0.35079E+00    rms(broyden)= 0.35065E+00
  rms(prec ) = 0.38428E+00
  weight for this iteration     100.00

 eigenvalues of (default mixing * dielectric matrix)
  average eigenvalue GAMMA=   2.0191
  2.0191  2.0191

 Free energy of the ion-electron system (eV)
  ---------------------------------------------------
  alpha Z        PSCENC =        66.98390366
  Ewald energy   TEWEN  =     -1709.66497520
  -Hartree energ DENC   =      -192.54820542
  -exchange      EXHF   =         0.00000000
  -V(xc)+E(xc)   XCENC  =        37.44906758
  PAW double counting   =       593.53789255     -496.09920635
  entropy T*S    EENTRO =        -0.00000000
  eigenvalues    EBANDS =       108.55865523
  atomic energy  EATOM  =      1501.29283077
  Solvation  Ediel_sol  =         0.00000000
  ---------------------------------------------------
  free energy    TOTEN  =       -90.49003719 eV

  energy without entropy =      -90.49003719  energy(sigma->0) =      -90.49003719


--------------------------------------------------------------------------------------------------------




--------------------------------------- Iteration      1(   8)  ---------------------------------------


    POTLOK:  cpu time      0.6940: real time      0.0995
    SETDIJ:  cpu time      0.0878: real time      0.0126
    EDDIAG:  cpu time      0.6122: real time      0.0883
  RMM-DIIS:  cpu time      3.0882: real time      1.1093
    ORTHCH:  cpu time      0.0842: real time      0.0425
       DOS:  cpu time      0.0042: real time      0.0021
    CHARGE:  cpu time      0.2426: real time      0.0609
    MIXING:  cpu time      0.0456: real time      0.0065
    --------------------------------------------
      LOOP:  cpu time      4.8587: real time      1.4218

 eigenvalue-minimisations  :  5952
 total energy-change (2. order) :-0.1563727E+00  (-0.3414198E+00)
 number of electron      48.0000001 magnetization 
 augmentation part       -0.6754507 magnetization 

 Broyden mixing:
  rms(total) = 0.24580E+00    rms(broyden)= 0.24580E+00
  rms(prec ) = 0.29167E+00
  weight for this iteration     100.00

 eigenvalues of (default mixing * dielectric matrix)
  average eigenvalue GAMMA=   1.6067
  2.5803  1.1199  1.1199

 Free energy of the ion-electron system (eV)
  ---------------------------------------------------
  alpha Z        PSCENC =        66.98390366
  Ewald energy   TEWEN  =     -1709.66497520
  -Hartree energ DENC   =      -181.89041292
  -exchange      EXHF   =         0.00000000
  -V(xc)+E(xc)   XCENC  =        36.89568375
  PAW double counting   =       587.24751176     -489.84964415
  entropy T*S    EENTRO =        -0.00000000
  eigenvalues    EBANDS =        98.33869243
  atomic energy  EATOM  =      1501.29283077
  Solvation  Ediel_sol  =         0.00000000
  ---------------------------------------------------
  free energy    TOTEN  =       -90.64640991 eV

  energy without entropy =      -90.64640991  energy(sigma->0) =      -90.64640991


--------------------------------------------------------------------------------------------------------




--------------------------------------- Iteration      1(   9)  ---------------------------------------


    POTLOK:  cpu time      0.7025: real time      0.1013
    SETDIJ:  cpu time      0.0885: real time      0.0126
    EDDIAG:  cpu time      0.6107: real time      0.0881
  RMM-DIIS:  cpu time      3.1253: real time      1.1228
    ORTHCH:  cpu time      0.0842: real time      0.0425
       DOS:  cpu time      0.0042: real time      0.0021
    CHARGE:  cpu time      0.2421: real time      0.0608
    MIXING:  cpu time      0.0437: real time      0.0062
    --------------------------------------------
      LOOP:  cpu time      4.9014: real time      1.4364

 eigenvalue-minimisations  :  5952
 total energy-change (2. order) : 0.2987046E+00  (-0.4274127E-01)
 number of electron      48.0000001 magnetization 
 augmentation part       -0.6955639 magnetization 

 Broyden mixing:
  rms(total) = 0.90363E-01    rms(broyden)= 0.90363E-01
  rms(prec ) = 0.10534E+00
  weight for this iteration     100.00

 eigenvalues of (default mixing * dielectric matrix)
  average eigenvalue GAMMA=   1.4768
  2.5125  1.0792  1.1577  1.1577

 Free energy of the ion-electron system (eV)
  ---------------------------------------------------
  alpha Z        PSCENC =        66.98390366
  Ewald energy   TEWEN  =     -1709.66497520
  -Hartree energ DENC   =      -190.30347733
  -exchange      EXHF   =         0.00000000
  -V(xc)+E(xc)   XCENC  =        37.61064964
  PAW double counting   =       604.69008322     -507.36291447
  entropy T*S    EENTRO =        -0.00000000
  eigenvalues    EBANDS =       106.40619438
  atomic energy  EATOM  =      1501.29283077
  Solvation  Ediel_sol  =         0.00000000
  ---------------------------------------------------
  free energy    TOTEN  =       -90.34770533 eV

  energy without entropy =      -90.34770533  energy(sigma->0) =      -90.34770533


--------------------------------------------------------------------------------------------------------




--------------------------------------- Iteration      1(  10)  ---------------------------------------


    POTLOK:  cpu time      0.6920: real time      0.0991
    SETDIJ:  cpu time      0.0874: real time      0.0126
    EDDIAG:  cpu time      0.6133: real time      0.0884
  RMM-DIIS:  cpu time      3.1054: real time      1.1162
    ORTHCH:  cpu time      0.0841: real time      0.0424
       DOS:  cpu time      0.0042: real time      0.0021
    CHARGE:  cpu time      0.2413: real time      0.0610
    MIXING:  cpu time      0.0461: real time      0.0066
    --------------------------------------------
      LOOP:  cpu time      4.8737: real time      1.4284

 eigenvalue-minimisations  :  5952
 total energy-change (2. order) : 0.9207777E-02  (-0.3330251E-01)
 number of electron      48.0000001 magnetization 
 augmentation part       -0.7249545 magnetization 

 Broyden mixing:
  rms(total) = 0.21107E-01    rms(broyden)= 0.21083E-01
  rms(prec ) = 0.24702E-01
  weight for this iteration     100.00

 eigenvalues of (default mixing * dielectric matrix)
  average eigenvalue GAMMA=   1.5919
  2.3626  2.3626  0.9017  1.1662  1.1662

 Free energy of the ion-electron system (eV)
  ---------------------------------------------------
  alpha Z        PSCENC =        66.98390366
  Ewald energy   TEWEN  =     -1709.66497520
  -Hartree energ DENC   =      -193.10583157
  -exchange      EXHF   =         0.00000000
  -V(xc)+E(xc)   XCENC  =        37.82622785
  PAW double counting   =       608.82541327     -511.51347849
  entropy T*S    EENTRO =        -0.00000000
  eigenvalues    EBANDS =       109.01741216
  atomic energy  EATOM  =      1501.29283077
  Solvation  Ediel_sol  =         0.00000000
  ---------------------------------------------------
  free energy    TOTEN  =       -90.33849756 eV

  energy without entropy =      -90.33849756  energy(sigma->0) =      -90.33849756


--------------------------------------------------------------------------------------------------------




--------------------------------------- Iteration      1(  11)  ---------------------------------------


    POTLOK:  cpu time      0.7029: real time      0.1008
    SETDIJ:  cpu time      0.0883: real time      0.0126
    EDDIAG:  cpu time      0.6175: real time      0.0886
  RMM-DIIS:  cpu time      3.2511: real time      1.2023
    ORTHCH:  cpu time      0.0842: real time      0.0425
       DOS:  cpu time      0.0043: real time      0.0021
    CHARGE:  cpu time      0.2601: real time      0.0636
    MIXING:  cpu time      0.0447: real time      0.0064
    --------------------------------------------
      LOOP:  cpu time      5.0533: real time      1.5191

 eigenvalue-minimisations  :  5952
 total energy-change (2. order) :-0.7758270E-03  (-0.3393919E-02)
 number of electron      48.0000001 magnetization 
 augmentation part       -0.7242213 magnetization 

 Broyden mixing:
  rms(total) = 0.11905E-01    rms(broyden)= 0.11902E-01
  rms(prec ) = 0.14256E-01
  weight for this iteration     100.00

 eigenvalues of (default mixing * dielectric matrix)
  average eigenvalue GAMMA=   1.5504
  2.6013  2.6013  1.0815  1.0815  1.1082  0.8288

 Free energy of the ion-electron system (eV)
  ---------------------------------------------------
  alpha Z        PSCENC =        66.98390366
  Ewald energy   TEWEN  =     -1709.66497520
  -Hartree energ DENC   =      -191.41615434
  -exchange      EXHF   =         0.00000000
  -V(xc)+E(xc)   XCENC  =        37.68639198
  PAW double counting   =       604.69482805     -507.36216073
  entropy T*S    EENTRO =        -0.00000000
  eigenvalues    EBANDS =       107.44606243
  atomic energy  EATOM  =      1501.29283077
  Solvation  Ediel_sol  =         0.00000000
  ---------------------------------------------------
  free energy    TOTEN  =       -90.33927338 eV

  energy without entropy =      -90.33927338  energy(sigma->0) =      -90.33927338


--------------------------------------------------------------------------------------------------------




--------------------------------------- Iteration      1(  12)  ---------------------------------------


    POTLOK:  cpu time      0.6950: real time      0.0994
    SETDIJ:  cpu time      0.0920: real time      0.0131
    EDDIAG:  cpu time      0.6114: real time      0.0880
  RMM-DIIS:  cpu time      3.3697: real time      1.2434
    ORTHCH:  cpu time      0.0842: real time      0.0425
       DOS:  cpu time      0.0042: real time      0.0021
    CHARGE:  cpu time      0.2432: real time      0.0609
    MIXING:  cpu time      0.0457: real time      0.0065
    --------------------------------------------
      LOOP:  cpu time      5.1455: real time      1.5559

 eigenvalue-minimisations  :  6428
 total energy-change (2. order) : 0.2269139E-03  (-0.6930569E-03)
 number of electron      48.0000001 magnetization 
 augmentation part       -0.7270533 magnetization 

 Broyden mixing:
  rms(total) = 0.18720E-02    rms(broyden)= 0.18656E-02
  rms(prec ) = 0.20827E-02
  weight for this iteration     100.00

 eigenvalues of (default mixing * dielectric matrix)
  average eigenvalue GAMMA=   1.3732
  2.6136  2.6136  1.0902  1.0902  1.0957  0.8315  0.2777

 Free energy of the ion-electron system (eV)
  ---------------------------------------------------
  alpha Z        PSCENC =        66.98390366
  Ewald energy   TEWEN  =     -1709.66497520
  -Hartree energ DENC   =      -191.94274070
  -exchange      EXHF   =         0.00000000
  -V(xc)+E(xc)   XCENC  =        37.72929976
  PAW double counting   =       605.60717354     -508.27744170
  entropy T*S    EENTRO =        -0.00000000
  eigenvalues    EBANDS =       107.93290342
  atomic energy  EATOM  =      1501.29283077
  Solvation  Ediel_sol  =         0.00000000
  ---------------------------------------------------
  free energy    TOTEN  =       -90.33904647 eV

  energy without entropy =      -90.33904647  energy(sigma->0) =      -90.33904647


--------------------------------------------------------------------------------------------------------




--------------------------------------- Iteration      1(  13)  ---------------------------------------


    POTLOK:  cpu time      0.6902: real time      0.0989
    SETDIJ:  cpu time      0.0892: real time      0.0127
    EDDIAG:  cpu time      0.6192: real time      0.0889
  RMM-DIIS:  cpu time      3.1671: real time      1.1490
    ORTHCH:  cpu time      0.0843: real time      0.0425
       DOS:  cpu time      0.0042: real time      0.0021
    CHARGE:  cpu time      0.2449: real time      0.0614
    MIXING:  cpu time      0.0500: real time      0.0073
    --------------------------------------------
      LOOP:  cpu time      4.9490: real time      1.4629

 eigenvalue-minimisations  :  5976
 total energy-change (2. order) :-0.1244776E-03  (-0.1135605E-03)
 number of electron      48.0000001 magnetization 
 augmentation part       -0.7286502 magnetization 

 Broyden mixing:
  rms(total) = 0.39770E-02    rms(broyden)= 0.39760E-02
  rms(prec ) = 0.45879E-02
  weight for this iteration     100.00

 eigenvalues of (default mixing * dielectric matrix)
  average eigenvalue GAMMA=   1.5488
  2.7580  2.7580  1.4740  1.4740  1.0843  1.0843  0.9928  0.7651

 Free energy of the ion-electron system (eV)
  ---------------------------------------------------
  alpha Z        PSCENC =        66.98390366
  Ewald energy   TEWEN  =     -1709.66497520
  -Hartree energ DENC   =      -192.03160229
  -exchange      EXHF   =         0.00000000
  -V(xc)+E(xc)   XCENC  =        37.73580068
  PAW double counting   =       605.81770509     -508.48887043
  entropy T*S    EENTRO =        -0.00000000
  eigenvalues    EBANDS =       108.01603678
  atomic energy  EATOM  =      1501.29283077
  Solvation  Ediel_sol  =         0.00000000
  ---------------------------------------------------
  free energy    TOTEN  =       -90.33917095 eV

  energy without entropy =      -90.33917095  energy(sigma->0) =      -90.33917095


--------------------------------------------------------------------------------------------------------




--------------------------------------- Iteration      1(  14)  ---------------------------------------


    POTLOK:  cpu time      0.7000: real time      0.1005
    SETDIJ:  cpu time      0.0893: real time      0.0128
    EDDIAG:  cpu time      0.6160: real time      0.0887
  RMM-DIIS:  cpu time      3.1514: real time      1.1375
    ORTHCH:  cpu time      0.0842: real time      0.0425
       DOS:  cpu time      0.0042: real time      0.0021
    CHARGE:  cpu time      0.2436: real time      0.0610
    MIXING:  cpu time      0.0506: real time      0.0074
    --------------------------------------------
      LOOP:  cpu time      4.9392: real time      1.4525

 eigenvalue-minimisations  :  5952
 total energy-change (2. order) : 0.4691218E-04  (-0.2270174E-04)
 number of electron      48.0000001 magnetization 
 augmentation part       -0.7281604 magnetization 

 Broyden mixing:
  rms(total) = 0.92108E-03    rms(broyden)= 0.92102E-03
  rms(prec ) = 0.10104E-02
  weight for this iteration     100.00

 eigenvalues of (default mixing * dielectric matrix)
  average eigenvalue GAMMA=   1.4923
  2.7251  2.7251  1.5733  1.5733  1.0947  1.0947  0.9781  0.9781  0.6881

 Free energy of the ion-electron system (eV)
  ---------------------------------------------------
  alpha Z        PSCENC =        66.98390366
  Ewald energy   TEWEN  =     -1709.66497520
  -Hartree energ DENC   =      -191.93019571
  -exchange      EXHF   =         0.00000000
  -V(xc)+E(xc)   XCENC  =        37.72522724
  PAW double counting   =       605.73754099     -508.40760380
  entropy T*S    EENTRO =        -0.00000000
  eigenvalues    EBANDS =       107.92414802
  atomic energy  EATOM  =      1501.29283077
  Solvation  Ediel_sol  =         0.00000000
  ---------------------------------------------------
  free energy    TOTEN  =       -90.33912403 eV

  energy without entropy =      -90.33912403  energy(sigma->0) =      -90.33912403


--------------------------------------------------------------------------------------------------------




--------------------------------------- Iteration      1(  15)  ---------------------------------------


    POTLOK:  cpu time      0.6934: real time      0.0992
    SETDIJ:  cpu time      0.0896: real time      0.0128
    EDDIAG:  cpu time      0.6141: real time      0.0882
  RMM-DIIS:  cpu time      3.1814: real time      1.1534
    ORTHCH:  cpu time      0.0843: real time      0.0426
       DOS:  cpu time      0.0042: real time      0.0021
    CHARGE:  cpu time      0.2449: real time      0.0612
    MIXING:  cpu time      0.0487: real time      0.0070
    --------------------------------------------
      LOOP:  cpu time      4.9607: real time      1.4665

 eigenvalue-minimisations  :  6010
 total energy-change (2. order) :-0.5072648E-05  (-0.4095878E-05)
 number of electron      48.0000001 magnetization 
 augmentation part       -0.7279832 magnetization 

 Broyden mixing:
  rms(total) = 0.10738E-03    rms(broyden)= 0.10725E-03
  rms(prec ) = 0.11674E-03
  weight for this iteration     100.00

 eigenvalues of (default mixing * dielectric matrix)
  average eigenvalue GAMMA=   1.5124
  2.9058  2.5752  1.9194  1.9194  1.0948  1.0948  0.9789  0.9565  0.9565  0.7227

 Free energy of the ion-electron system (eV)
  ---------------------------------------------------
  alpha Z        PSCENC =        66.98390366
  Ewald energy   TEWEN  =     -1709.66497520
  -Hartree energ DENC   =      -191.94682275
  -exchange      EXHF   =         0.00000000
  -V(xc)+E(xc)   XCENC  =        37.72694923
  PAW double counting   =       605.82199889     -508.49222581
  entropy T*S    EENTRO =        -0.00000000
  eigenvalues    EBANDS =       107.93921211
  atomic energy  EATOM  =      1501.29283077
  Solvation  Ediel_sol  =         0.00000000
  ---------------------------------------------------
  free energy    TOTEN  =       -90.33912911 eV

  energy without entropy =      -90.33912911  energy(sigma->0) =      -90.33912911


--------------------------------------------------------------------------------------------------------




--------------------------------------- Iteration      1(  16)  ---------------------------------------


    POTLOK:  cpu time      0.6970: real time      0.1002
    SETDIJ:  cpu time      0.0893: real time      0.0128
    EDDIAG:  cpu time      0.6109: real time      0.0882
  RMM-DIIS:  cpu time      2.9098: real time      1.0174
    ORTHCH:  cpu time      0.0841: real time      0.0424
       DOS:  cpu time      0.0042: real time      0.0021
    --------------------------------------------
      LOOP:  cpu time      4.3948: real time      1.2630

 eigenvalue-minimisations  :  4903
 total energy-change (2. order) :-0.1507601E-07  (-0.6733874E-06)
 number of electron      48.0000001 magnetization 
 augmentation part       -0.7279832 magnetization 

 Free energy of the ion-electron system (eV)
  ---------------------------------------------------
  alpha Z        PSCENC =        66.98390366
  Ewald energy   TEWEN  =     -1709.66497520
  -Hartree energ DENC   =      -191.95334168
  -exchange      EXHF   =         0.00000000
  -V(xc)+E(xc)   XCENC  =        37.72760886
  PAW double counting   =       605.82832776     -508.49840754
  entropy T*S    EENTRO =        -0.00000000
  eigenvalues    EBANDS =       107.94492426
  atomic energy  EATOM  =      1501.29283077
  Solvation  Ediel_sol  =         0.00000000
  ---------------------------------------------------
  free energy    TOTEN  =       -90.33912912 eV

[...]
  227          m_sumb_d                              0.031331                          3   4
  228        fordep                                0.162378                            3   3
  229          setdij_                               0.162294                         18   4
  230        setdij_                               0.538017                           60   3
  231        set_dd_magatom                        0.000006                            3   3
  232        set_dd_paw                            0.016305                            3   3
  233          m_sumb_d                              0.006803                         21   4
  234        strkin                                0.016843                            3   3
  235          m_sumb_d                              0.000038                          3   4
  236        strelo                                0.014671                            3   3
  237        strnlr                                4.129417                            3   3
  238          rspher_all                            0.175140                         27   4
  239          phaser                                1.717542                        648   4
  240          rpro_isp                              2.088030                        648   4
  241            fftwav_mpi                            0.295248                    20088   5
  242              fftwav                                0.267934                  20088   6
  243                fft3d                                 0.184040                20088   7
  244            rpromu_acc                            1.756989                     5184   5
  245          m_sumb_d                              0.102334                         27   4
  246        fft3d_mpi                             0.066644                           33   3
  247          fftbrc_mpi                            0.051386                         33   4
  248            fftbas_plan_mpi                       0.051356                       33   5
  249              dfftw_execute                         0.035981                     99   6
  250              map_forward                           0.006053                     30   6
  251                map_scatter                           0.004094                   15   7
  252              map_backward                          0.007452                     36   6
  253                map_gather                            0.004870                   18   7
  254        ggaall_grid                           0.063729                            3   3
  255        forhar                                0.063087                            6   3
  256        strehar                               0.009723                            3   3
  257        chggra                                0.041800                            3   3
  258          fft3d_mpi                             0.036928                          9   4
  259            fftbrc_mpi                            0.034726                        9   5
  260              fftbas_plan_mpi                       0.034716                      9   6
  261                map_forward                           0.000074                   12   7
  262                  map_scatter                           0.000014                  6   8
  263                map_backward                          0.000021                    6   7
  264                  map_gather                            0.000006                  3   8
  265          pothar                                0.000873                          3   4
  266        brmix                                 0.024294                            3   3
  267          brpre                                 0.000280                          3   4
  268          setg0                                 0.008646                          3   4
  269          broyd                                 0.003963                          3   4
  270            brget                                 0.000637                      162   5
  271            brsav                                 0.000409                       42   5
  272          m_bcast_z                             0.008659                          3   4
  273          m_bcast_d                             0.000104                          3   4
  274        m_bcast_d                             0.000063                            6   3
  275      potlok                                0.301511                              3   2
  276        fft3d_mpi                             0.075648                           39   3
  277          fftbrc_mpi                            0.058167                         39   4
  278            fftbas_plan_mpi                       0.058137                       39   5
  279              dfftw_execute                         0.041231                    117   6
  280              map_forward                           0.007266                     42   6
  281                map_scatter                           0.004917                   21   7
  282              map_backward                          0.007815                     36   6
  283                map_gather                            0.005273                   18   7
  284        ggaall_grid                           0.063707                            3   3
  285        pothar                                0.010743                            3   3
  286      potlok_metagga                        0.000002                              3   2
  287      set_dd_magatom                        0.000006                              3   2
  288      set_dd_paw                            0.009768                              3   2
  289        m_sumb_d                              0.000250                           21   3
  290      wavpre_noio                           0.096212                              2   2
  291        stufak                                0.009316                            2   3
  292      densta                                0.001872                              1   2
  293        m_sumb_d                              0.000084                           11   3
 
 Flat profile
 ============
 
             routine name                   CPU           calls
 ---------------------------------------------------------------
 i2                                      5.514666       10112
 rpromu_acc                              5.307682       19241
 i3                                      5.166991       10112
 eddav                                   5.018451           7
 phaser                                  4.652971        1752
 orth1                                   3.648967        8307
 hamiltmu                                3.407343       12425
 total_time                              3.156016           1
 fft3d                                   2.633716      232723
 lapack                                  2.245447        2313
 cnorma                                  2.139376      177459
 newband                                 2.066617       13241
 potlok                                  1.726049          33
 eddiag                                  1.607723          27
 m_sumb_d                                1.602498         920
 choleski                                1.441289         720
 setdij_                                 1.017402         112
 raccmu_                                 0.980048       12425
 racc0mu_acc                             0.932846       12425
 w1_copy                                 0.886101      170436
 eccp                                    0.883506       84449
 ggaall_grid                             0.768293          36
 overl_mu                                0.736385       12425
 w1_gemv                                 0.735297      152832
 w1_dot                                  0.718735       20088
 fftwav                                  0.706436      155823
 dfftw_execute                           0.546573        1575
 w1_dscal                                0.484159       95996
 augmentation_charge                     0.344469          30
 w1_daxpy                                0.317554       78130
 lincom                                  0.294834        1536
 init_hip                                0.288360           1
 fft3d_mpi                               0.272794       77434
 elmin                                   0.260660           3
 rspher_all                              0.248336          40
 fftwav_mpi                              0.227587      155823
 kinhamil                                0.198526       76900
 fftext_mpi                              0.189847       76900
 overl                                   0.178732       31654
 set_charge                              0.173151          30
 vhamil                                  0.164421       76900
 w1_gaxpy                                0.157719       38792
 overl1                                  0.153612       38208
 depsum                                  0.152734          30
 force_and_stress                        0.151270           3
 apply_precond                           0.143312       71419
 eccp_nl                                 0.138439      118306
 zhegv                                   0.137502       18977
 ggemm                                   0.123216        2985
 pothar                                  0.119786          36
 set_dd_paw                              0.114157          36
 setup_precond                           0.103350       25296
 wavpre_noio                             0.086896           2
 setg0                                   0.086560          33
 eddrmm                                  0.079096          27
 fftbas_plan_mpi                         0.076125         534
 map_gather                              0.069991         279
 soft_charge                             0.064401          30
 densta                                  0.064341          35
 forhar                                  0.063087           6
 map_scatter                             0.062854         255
 m_bcast_z                               0.061939          71
 rpro_isp                                0.052541         936
 strnlr                                  0.046371           3
 forloc                                  0.042905           3
 orthch                                  0.038747          30
 map_backward                            0.036836         558
 proall                                  0.032006           3
 pw_charge                               0.031824       17280
 map_forward                             0.029853         510
 brmix                                   0.026604          30
 i1                                      0.020454       10112
 hamilt_local                            0.018646       20088
 strkin                                  0.016805           3
 hip_hipfft_makeplan                     0.015962           6
 fornlr                                  0.015397           3
 broyd                                   0.015380          30
 stufak                                  0.014978           3
 strelo                                  0.014671           3
 inisym                                  0.011840           1
 truncate_high_frequency_w1              0.011327       82108
 w1_projall                              0.010328       11753
 strehar                                 0.009723           3
 chggra                                  0.003999           3
 brget                                   0.003646         947
 brsav                                   0.002906         293
 brpre                                   0.002818          30
 m_bcast_d                               0.002557          49
 fewald                                  0.001535           3
 fft_gq                                  0.001504          30
 brgrid                                  0.001149           1
 rsp                                     0.000577           3
 fftbrc_mpi                              0.000415         534
 hip_init_hipblas                        0.000247           1
 shift_bands_between_low_high            0.000216         648
 rcp                                     0.000153           3
 vectorpot                               0.000107          31
 fordep                                  0.000084           3
 set_dd_magatom                          0.000083          36
 hip_init_rocsolver                      0.000068           1
 crpa_reader                             0.000066           1
 posmap                                  0.000024           2
 potlok_metagga                          0.000023          33
 rotate_active_occupied_orbital          0.000009           3
 hip_hipfft_makeplans                    0.000003           3
 redis_pw_over_bands                     0.000002           3
 ---------------------------------------------------------------
  summed up times    66.6366329193115     
 
 Accumulative profile
 ====================
 
             routine name                   CPU           calls
 ---------------------------------------------------------------
 total_time                             66.636633           1
 elmin                                  51.199868           3
 eddrmm                                 29.996761          27
 eddav                                  11.992109           7
 i3                                      9.259824       10112
 i2                                      7.983231       10112
 hamiltmu                                7.121595       12425
 force_and_stress                        6.892700           3
 rpromu_acc                              5.307682       19241
 orthch                                  5.006329          30
 phaser                                  4.652971        1752
 strnlr                                  4.129417           3
 orth1                                   3.648967        8307
 potlok                                  3.402802          33
 rpro_isp                                3.284207         936
 newband                                 3.057857       13241
 fftwav_mpi                              2.781196      155823
 w1_projall                              2.762189       11753
 raccmu_                                 2.649279       12425
 fft3d                                   2.633716      232723
 fftwav                                  2.553608      155823
 eddiag                                  2.403511          27
 cnorma                                  2.277815      177459
 lapack                                  2.245447        2313
 fft3d_mpi                               1.881984       77434
 set_charge                              1.838023          30
 m_sumb_d                                1.602498         920
 choleski                                1.441289         720
 fornlr                                  1.368685           3
 kinhamil                                1.218328       76900
 soft_charge                             1.100378          30
 fftext_mpi                              1.019802       76900
 setdij_                                 1.017402         112
 racc0mu_acc                             0.932846       12425
 w1_gemv                                 0.888909      152832
 w1_copy                                 0.886101      170436
 eccp                                    0.883506       84449
 fftbrc_mpi                              0.822646         534
 fftbas_plan_mpi                         0.822232         534
 ggaall_grid                             0.768293          36
 overl_mu                                0.736385       12425
 proall                                  0.725224           3
 w1_dot                                  0.718735       20088
 dfftw_execute                           0.546573        1575
 w1_dscal                                0.484159       95996
 augmentation_charge                     0.405231          30
 hamilt_local                            0.336422       20088
 w1_daxpy                                0.317554       78130
 lincom                                  0.294834        1536
 init_hip                                0.288360           1
 rspher_all                              0.248336          40
 brmix                                   0.199192          30
 overl                                   0.178732       31654
 i1                                      0.177264       10112
 vhamil                                  0.164421       76900
 fordep                                  0.162378           3
 depsum                                  0.159264          30
 w1_gaxpy                                0.157719       38792
 overl1                                  0.153612       38208
 set_dd_paw                              0.149334          36
 apply_precond                           0.143312       71419
 eccp_nl                                 0.138439      118306
 zhegv                                   0.137502       18977
 ggemm                                   0.123216        2985
 pothar                                  0.119786          36
 map_backward                            0.106827         558
 setup_precond                           0.103350       25296
 wavpre_noio                             0.096212           2
 map_forward                             0.092706         510
 setg0                                   0.086560          33
 map_gather                              0.069991         279
 densta                                  0.067718          35
 forhar                                  0.063087           6
 map_scatter                             0.062854         255
 m_bcast_z                               0.061939          71
 forloc                                  0.042905           3
 chggra                                  0.041800           3
 pw_charge                               0.031824       17280
 fft_gq                                  0.027398          30
 broyd                                   0.021933          30
 strkin                                  0.016843           3
 hip_hipfft_makeplans                    0.015965           3
 hip_hipfft_makeplan                     0.015962           6
 stufak                                  0.014978           3
 strelo                                  0.014671           3
 inisym                                  0.011864           1
 truncate_high_frequency_w1              0.011327       82108
 strehar                                 0.009723           3
 brget                                   0.003646         947
 brsav                                   0.002906         293
 brpre                                   0.002818          30
 m_bcast_d                               0.002557          49
 fewald                                  0.002514           3
 brgrid                                  0.001149           1
 rsp                                     0.000577           3
 hip_init_hipblas                        0.000247           1
 shift_bands_between_low_high            0.000216         648
 rcp                                     0.000153           3
 vectorpot                               0.000107          31
 set_dd_magatom                          0.000083          36
 hip_init_rocsolver                      0.000068           1
 crpa_reader                             0.000066           1
 posmap                                  0.000024           2
 potlok_metagga                          0.000023          33
 rotate_active_occupied_orbital          0.000009           3
 redis_pw_over_bands                     0.000002           3
 ---------------------------------------------------------------
 
Profiling took   0.396004  0.243436  0.002905  0.002812 seconds
Profiling took   0.301543 seconds
