<?xml version="1.0" encoding="ISO-8859-1"?>
<modeling>
 <generator>
  <i name="program" type="string">vasp </i>
  <i name="version" type="string">6.3.2  </i>
  <i name="subversion" type="string">27Jun22 (build Mar 15 2023 15:45:48) complex                          parallel </i>
  <i name="platform" type="string">LinuxIFC </i>
  <i name="date" type="string">2024 07 14 </i>
  <i name="time" type="string">12:07:21 </i>
 </generator>
 <incar>
  <i type="string" name="SYSTEM">ni3al</i>
  <i type="int" name="ISTART">     0</i>
  <i type="string" name="PREC">Accurate</i>
  <i type="string" name="ALGO">Fast</i>
  <i name="AMIN">      0.01000000</i>
  <i type="int" name="ICHARG">     2</i>
  <i type="int" name="NELM">   150</i>
  <i type="int" name="IBRION">     2</i>
  <i name="EDIFF">      0.00000100</i>
  <i name="EDIFFG">     -0.01000000</i>
  <i type="int" name="NSW">   300</i>
  <i type="int" name="ISIF">     3</i>
  <i name="ENCUT">    530.00000000</i>
  <i type="string" name="LREAL">Auto</i>
  <i type="int" name="ISMEAR">     0</i>
  <i name="SIGMA">      0.10000000</i>
  <i type="int" name="LMAXMIX">     4</i>
  <i type="logical" name="LWAVE"> F  </i>
  <i type="logical" name="LCHARG"> F  </i>
 </incar>
 <primitive_cell>
  <structure name="primitive_cell" >
   <crystal>
    <varray name="basis" >
     <v>       3.07662106       0.00000000       0.00000000 </v>
     <v>      -1.53831053       2.66443199       0.00000000 </v>
     <v>       0.00000000       0.00000000      15.09808445 </v>
    </varray>
    <i name="volume">    123.76575565 </i>
    <varray name="rec_basis" >
     <v>       0.32503190       0.18765726       0.00000000 </v>
     <v>       0.00000000       0.37531451       0.00000000 </v>
     <v>       0.00000000       0.00000000       0.06623357 </v>
    </varray>
   </crystal>
   <varray name="positions" >
    <v>       0.00000000       0.00000000       0.49972942 </v>
    <v>       0.00000000       0.00000000       0.99972942 </v>
    <v>       0.33333334       0.66666669       0.16650060 </v>
    <v>       0.66666666       0.33333331       0.66650060 </v>
    <v>       0.33333334       0.66666669       0.83298615 </v>
    <v>       0.66666666       0.33333331       0.33298615 </v>
    <v>       0.00000000       0.00000000       0.37436641 </v>
    <v>       0.00000000       0.00000000       0.87436641 </v>
    <v>       0.33333334       0.66666669       0.04152164 </v>
    <v>       0.66666666       0.33333331       0.54152164 </v>
    <v>       0.33333334       0.66666669       0.70799678 </v>
    <v>       0.66666666       0.33333331       0.20799678 </v>
   </varray>
  </structure>
  <varray name="primitive_index" >
   <v type="int" >        1 </v>
   <v type="int" >        2 </v>
   <v type="int" >        3 </v>
   <v type="int" >        4 </v>
   <v type="int" >        5 </v>
   <v type="int" >        6 </v>
   <v type="int" >        7 </v>
   <v type="int" >        8 </v>
   <v type="int" >        9 </v>
   <v type="int" >       10 </v>
   <v type="int" >       11 </v>
   <v type="int" >       12 </v>
  </varray>
 </primitive_cell>
 <kpoints>
  <generation param="Gamma">
   <v type="int" name="divisions">      21       21        3 </v>
   <v name="usershift">      0.00000000       0.00000000       0.00000000 </v>
   <v name="genvec1">      0.04761905      -0.00000000       0.00000000 </v>
   <v name="genvec2">      0.00000000       0.04761905       0.00000000 </v>
   <v name="genvec3">      0.00000000       0.00000000       0.33333333 </v>
   <v name="shift">      0.00000000       0.00000000       0.00000000 </v>
  </generation>
  <varray name="kpointlist" >
   <v>       0.00000000       0.00000000       0.00000000 </v>
   <v>       0.04761905       0.00000000       0.00000000 </v>
   <v>       0.09523810       0.00000000       0.00000000 </v>
   <v>       0.14285714       0.00000000       0.00000000 </v>
   <v>       0.19047619       0.00000000       0.00000000 </v>
   <v>       0.23809524       0.00000000       0.00000000 </v>
   <v>       0.28571429       0.00000000       0.00000000 </v>
   <v>       0.33333333       0.00000000       0.00000000 </v>
   <v>       0.38095238       0.00000000       0.00000000 </v>
   <v>       0.42857143       0.00000000       0.00000000 </v>
   <v>       0.47619048       0.00000000       0.00000000 </v>
   <v>       0.04761905       0.04761905       0.00000000 </v>
   <v>       0.09523810       0.04761905       0.00000000 </v>
   <v>       0.14285714       0.04761905       0.00000000 </v>
   <v>       0.19047619       0.04761905       0.00000000 </v>
   <v>       0.23809524       0.04761905       0.00000000 </v>
   <v>       0.28571429       0.04761905       0.00000000 </v>
   <v>       0.33333333       0.04761905       0.00000000 </v>
   <v>       0.38095238       0.04761905       0.00000000 </v>
   <v>       0.42857143       0.04761905       0.00000000 </v>
   <v>       0.47619048       0.04761905       0.00000000 </v>
   <v>       0.09523810       0.09523810       0.00000000 </v>
   <v>       0.14285714       0.09523810       0.00000000 </v>
   <v>       0.19047619       0.09523810       0.00000000 </v>
   <v>       0.23809524       0.09523810       0.00000000 </v>
   <v>       0.28571429       0.09523810       0.00000000 </v>
   <v>       0.33333333       0.09523810       0.00000000 </v>
   <v>       0.38095238       0.09523810       0.00000000 </v>
   <v>       0.42857143       0.09523810       0.00000000 </v>
   <v>       0.14285714       0.14285714       0.00000000 </v>
   <v>       0.19047619       0.14285714       0.00000000 </v>
   <v>       0.23809524       0.14285714       0.00000000 </v>
   <v>       0.28571429       0.14285714       0.00000000 </v>
   <v>       0.33333333       0.14285714       0.00000000 </v>
   <v>       0.38095238       0.14285714       0.00000000 </v>
   <v>       0.42857143       0.14285714       0.00000000 </v>
   <v>       0.19047619       0.19047619       0.00000000 </v>
   <v>       0.23809524       0.19047619       0.00000000 </v>
   <v>       0.28571429       0.19047619       0.00000000 </v>
   <v>       0.33333333       0.19047619       0.00000000 </v>
   <v>       0.38095238       0.19047619       0.00000000 </v>
   <v>       0.23809524       0.23809524       0.00000000 </v>
   <v>       0.28571429       0.23809524       0.00000000 </v>
   <v>       0.33333333       0.23809524       0.00000000 </v>
   <v>       0.38095238       0.23809524       0.00000000 </v>
   <v>       0.28571429       0.28571429       0.00000000 </v>
   <v>       0.33333333       0.28571429       0.00000000 </v>
   <v>       0.33333333       0.33333333       0.00000000 </v>
   <v>       0.00000000       0.00000000       0.33333333 </v>
   <v>       0.04761905       0.00000000       0.33333333 </v>
   <v>       0.09523810       0.00000000       0.33333333 </v>
   <v>       0.14285714       0.00000000       0.33333333 </v>
   <v>       0.19047619       0.00000000       0.33333333 </v>
   <v>       0.23809524       0.00000000       0.33333333 </v>
   <v>       0.28571429       0.00000000       0.33333333 </v>
   <v>       0.33333333       0.00000000       0.33333333 </v>
   <v>       0.38095238       0.00000000       0.33333333 </v>
   <v>       0.42857143       0.00000000       0.33333333 </v>
   <v>       0.47619048       0.00000000       0.33333333 </v>
   <v>       0.04761905       0.04761905       0.33333333 </v>
   <v>       0.09523810       0.04761905       0.33333333 </v>
   <v>       0.14285714       0.04761905       0.33333333 </v>
   <v>       0.19047619       0.04761905       0.33333333 </v>
   <v>       0.23809524       0.04761905       0.33333333 </v>
   <v>       0.28571429       0.04761905       0.33333333 </v>
   <v>       0.33333333       0.04761905       0.33333333 </v>
   <v>       0.38095238       0.04761905       0.33333333 </v>
   <v>       0.42857143       0.04761905       0.33333333 </v>
   <v>       0.47619048       0.04761905       0.33333333 </v>
   <v>       0.09523810       0.09523810       0.33333333 </v>
   <v>       0.14285714       0.09523810       0.33333333 </v>
   <v>       0.19047619       0.09523810       0.33333333 </v>
   <v>       0.23809524       0.09523810       0.33333333 </v>
   <v>       0.28571429       0.09523810       0.33333333 </v>
   <v>       0.33333333       0.09523810       0.33333333 </v>
   <v>       0.38095238       0.09523810       0.33333333 </v>
   <v>       0.42857143       0.09523810       0.33333333 </v>
   <v>       0.14285714       0.14285714       0.33333333 </v>
   <v>       0.19047619       0.14285714       0.33333333 </v>
   <v>       0.23809524       0.14285714       0.33333333 </v>
   <v>       0.28571429       0.14285714       0.33333333 </v>
   <v>       0.33333333       0.14285714       0.33333333 </v>
   <v>       0.38095238       0.14285714       0.33333333 </v>
   <v>       0.42857143       0.14285714       0.33333333 </v>
   <v>       0.19047619       0.19047619       0.33333333 </v>
   <v>       0.23809524       0.19047619       0.33333333 </v>
   <v>       0.28571429       0.19047619       0.33333333 </v>
   <v>       0.33333333       0.19047619       0.33333333 </v>
   <v>       0.38095238       0.19047619       0.33333333 </v>
   <v>       0.23809524       0.23809524       0.33333333 </v>
   <v>       0.28571429       0.23809524       0.33333333 </v>
   <v>       0.33333333       0.23809524       0.33333333 </v>
   <v>       0.38095238       0.23809524       0.33333333 </v>
   <v>       0.28571429       0.28571429       0.33333333 </v>
   <v>       0.33333333       0.28571429       0.33333333 </v>
   <v>       0.33333333       0.33333333       0.33333333 </v>
  </varray>
  <varray name="weights" >
   <v>       0.00075586 </v>
   <v>       0.00453515 </v>
   <v>       0.00453515 </v>
   <v>       0.00453515 </v>
   <v>       0.00453515 </v>
   <v>       0.00453515 </v>
   <v>       0.00453515 </v>
   <v>       0.00453515 </v>
   <v>       0.00453515 </v>
   <v>       0.00453515 </v>
   <v>       0.00453515 </v>
   <v>       0.00453515 </v>
   <v>       0.00907029 </v>
   <v>       0.00907029 </v>
   <v>       0.00907029 </v>
   <v>       0.00907029 </v>
   <v>       0.00907029 </v>
   <v>       0.00907029 </v>
   <v>       0.00907029 </v>
   <v>       0.00907029 </v>
   <v>       0.00453515 </v>
   <v>       0.00453515 </v>
   <v>       0.00907029 </v>
   <v>       0.00907029 </v>
   <v>       0.00907029 </v>
   <v>       0.00907029 </v>
   <v>       0.00907029 </v>
   <v>       0.00907029 </v>
   <v>       0.00907029 </v>
   <v>       0.00453515 </v>
   <v>       0.00907029 </v>
   <v>       0.00907029 </v>
   <v>       0.00907029 </v>
   <v>       0.00907029 </v>
   <v>       0.00907029 </v>
   <v>       0.00453515 </v>
   <v>       0.00453515 </v>
   <v>       0.00907029 </v>
   <v>       0.00907029 </v>
   <v>       0.00907029 </v>
   <v>       0.00907029 </v>
   <v>       0.00453515 </v>
   <v>       0.00907029 </v>
   <v>       0.00907029 </v>
   <v>       0.00453515 </v>
   <v>       0.00453515 </v>
   <v>       0.00907029 </v>
   <v>       0.00151172 </v>
   <v>       0.00151172 </v>
   <v>       0.00907029 </v>
   <v>       0.00907029 </v>
   <v>       0.00907029 </v>
   <v>       0.00907029 </v>
   <v>       0.00907029 </v>
   <v>       0.00907029 </v>
   <v>       0.00907029 </v>
   <v>       0.00907029 </v>
   <v>       0.00907029 </v>
   <v>       0.00907029 </v>
   <v>       0.00907029 </v>
   <v>       0.01814059 </v>
   <v>       0.01814059 </v>
   <v>       0.01814059 </v>
   <v>       0.01814059 </v>
   <v>       0.01814059 </v>
   <v>       0.01814059 </v>
   <v>       0.01814059 </v>
   <v>       0.01814059 </v>
   <v>       0.00907029 </v>
   <v>       0.00907029 </v>
   <v>       0.01814059 </v>
   <v>       0.01814059 </v>
   <v>       0.01814059 </v>
   <v>       0.01814059 </v>
   <v>       0.01814059 </v>
   <v>       0.01814059 </v>
   <v>       0.01814059 </v>
   <v>       0.00907029 </v>
   <v>       0.01814059 </v>
   <v>       0.01814059 </v>
   <v>       0.01814059 </v>
   <v>       0.01814059 </v>
   <v>       0.01814059 </v>
   <v>       0.00907029 </v>
   <v>       0.00907029 </v>
   <v>       0.01814059 </v>
   <v>       0.01814059 </v>
   <v>       0.01814059 </v>
   <v>       0.01814059 </v>
   <v>       0.00907029 </v>
   <v>       0.01814059 </v>
   <v>       0.01814059 </v>
   <v>       0.00907029 </v>
   <v>       0.00907029 </v>
   <v>       0.01814059 </v>
   <v>       0.00302343 </v>
  </varray>
 </kpoints>
 <parameters>
  <separator name="general" >
   <i type="string" name="SYSTEM">ni3al</i>
   <i type="logical" name="LCOMPAT"> F  </i>
  </separator>
  <separator name="electronic" >
   <i type="string" name="PREC">accura</i>
   <i name="ENMAX">    530.00000000</i>
   <i name="ENAUG">    644.87300000</i>
   <i name="EDIFF">      0.00000100</i>
   <i type="int" name="IALGO">    68</i>
   <i type="int" name="IWAVPR">    11</i>
   <i type="int" name="NBANDS">    31</i>
   <i type="int" name="NBANDSLOW">    -1</i>
   <i type="int" name="NBANDSHIGH">    -1</i>
   <i name="NELECT">     48.00000000</i>
   <i type="int" name="TURBO">     0</i>
   <i type="int" name="IRESTART">     0</i>
   <i type="int" name="NREBOOT">     0</i>
   <i type="int" name="NMIN">     0</i>
   <i name="EREF">      0.00000000</i>
   <separator name="electronic smearing" >
    <i type="int" name="ISMEAR">     0</i>
    <i name="SIGMA">      0.10000000</i>
    <i name="KSPACING">      0.50000000</i>
    <i type="logical" name="KGAMMA"> T  </i>
    <i type="logical" name="KBLOWUP"> T  </i>
   </separator>
   <separator name="electronic projectors" >
    <i type="logical" name="LREAL"> T  </i>
    <v name="ROPT">     -0.00025000     -0.00025000</v>
    <i type="int" name="LMAXPAW">  -100</i>
    <i type="int" name="LMAXMIX">     4</i>
    <i type="logical" name="NLSPLINE"> F  </i>
   </separator>
   <separator name="electronic startup" >
    <i type="int" name="ISTART">     0</i>
    <i type="int" name="ICHARG">     2</i>
    <i type="int" name="INIWAV">     1</i>
   </separator>
   <separator name="electronic spin" >
    <i type="int" name="ISPIN">     1</i>
    <i type="logical" name="LNONCOLLINEAR"> F  </i>
    <v name="MAGMOM">      1.00000000      1.00000000      1.00000000      1.00000000      1.00000000      1.00000000      1.00000000      1.00000000      1.00000000      1.00000000      1.00000000      1.00000000</v>
    <i name="NUPDOWN">     -1.00000000</i>
    <i type="logical" name="LSORBIT"> F  </i>
    <v name="SAXIS">      0.00000000      0.00000000      1.00000000</v>
    <i type="logical" name="LSPIRAL"> F  </i>
    <v name="QSPIRAL">      0.00000000      0.00000000      0.00000000</v>
    <i type="logical" name="LZEROZ"> F  </i>
   </separator>
   <separator name="electronic exchange-correlation" >
    <i type="logical" name="LASPH"> F  </i>
    <i type="logical" name="LMETAGGA"> F  </i>
   </separator>
   <separator name="electronic convergence" >
    <i type="int" name="NELM">   150</i>
    <i type="int" name="NELMDL">    -5</i>
    <i type="int" name="NELMIN">     2</i>
    <i name="ENINI">    530.00000000</i>
    <separator name="electronic convergence detail" >
     <i type="logical" name="LDIAG"> T  </i>
     <i type="logical" name="LSUBROT"> F  </i>
     <i name="WEIMIN">      0.00100000</i>
     <i name="EBREAK">      0.00000001</i>
     <i name="DEPER">      0.30000000</i>
     <i type="int" name="NRMM">     4</i>
     <i name="TIME">      0.40000000</i>
    </separator>
   </separator>
   <separator name="electronic mixer" >
    <i name="AMIX">      0.40000000</i>
    <i name="BMIX">      1.00000000</i>
    <i name="AMIN">      0.01000000</i>
    <i name="AMIX_MAG">      1.60000000</i>
    <i name="BMIX_MAG">      1.00000000</i>
    <separator name="electronic mixer details" >
     <i type="int" name="IMIX">     4</i>
     <i type="logical" name="MIXFIRST"> F  </i>
     <i type="int" name="MAXMIX">   -45</i>
     <i name="WC">    100.00000000</i>
     <i type="int" name="INIMIX">     1</i>
     <i type="int" name="MIXPRE">     1</i>
     <i type="int" name="MREMOVE">     5</i>
    </separator>
   </separator>
   <separator name="electronic dipolcorrection" >
    <i type="logical" name="LDIPOL"> F  </i>
    <i type="logical" name="LMONO"> F  </i>
    <i type="int" name="IDIPOL">     0</i>
    <i name="EPSILON">      1.00000000</i>
    <v name="DIPOL">   -100.00000000   -100.00000000   -100.00000000</v>
    <i name="EFIELD">      0.00000000</i>
   </separator>
  </separator>
  <separator name="grids" >
   <i type="int" name="NGX">    24</i>
   <i type="int" name="NGY">    24</i>
   <i type="int" name="NGZ">   120</i>
   <i type="int" name="NGXF">    48</i>
   <i type="int" name="NGYF">    48</i>
   <i type="int" name="NGZF">   240</i>
   <i type="logical" name="ADDGRID"> F  </i>
  </separator>
  <separator name="ionic" >
   <i type="int" name="NSW">   300</i>
   <i type="int" name="IBRION">     2</i>
   <i type="int" name="MDALGO">     0</i>
   <i type="int" name="ISIF">     3</i>
   <i name="PSTRESS">      0.00000000</i>
   <i name="EDIFFG">     -0.01000000</i>
   <i type="int" name="NFREE">     1</i>
   <i name="POTIM">      0.50000000</i>
   <i name="SMASS">     -3.00000000</i>
   <i name="SCALEE">      1.00000000</i>
  </separator>
  <separator name="ionic md" >
   <i name="TEBEG">      0.00010000</i>
   <i name="TEEND">      0.00010000</i>
   <i type="int" name="NBLOCK">     1</i>
   <i type="int" name="KBLOCK">   300</i>
   <i type="int" name="NPACO">   256</i>
   <i name="APACO">     10.00000000</i>
  </separator>
  <separator name="symmetry" >
   <i type="int" name="ISYM">     2</i>
   <i name="SYMPREC">      0.00001000</i>
  </separator>
  <separator name="dos" >
   <i type="int" name="LORBIT">     0</i>
   <v name="RWIGS">     -1.00000000     -1.00000000</v>
   <i type="int" name="NEDOS">   301</i>
   <i name="EMIN">     10.00000000</i>
   <i name="EMAX">    -10.00000000</i>
   <i name="EFERMI">      0.00000000</i>
  </separator>
  <separator name="writing" >
   <i type="int" name="NWRITE">     2</i>
   <i type="logical" name="LWAVE"> F  </i>
   <i type="logical" name="LDOWNSAMPLE"> F  </i>
   <i type="logical" name="LCHARG"> F  </i>
   <i type="logical" name="LPARD"> F  </i>
   <i type="logical" name="LVTOT"> F  </i>
   <i type="logical" name="LVHAR"> F  </i>
   <i type="logical" name="LELF"> F  </i>
   <i type="logical" name="LOPTICS"> F  </i>
   <v name="STM">      0.00000000      0.00000000      0.00000000      0.00000000      0.00000000      0.00000000      0.00000000</v>
  </separator>
  <separator name="performance" >
   <i type="int" name="NPAR">     1</i>
   <i type="int" name="NSIM">     4</i>
   <i type="int" name="NBLK">    -1</i>
   <i type="logical" name="LPLANE"> T  </i>
   <i type="logical" name="LSCALAPACK"> T  </i>
   <i type="logical" name="LSCAAWARE"> F  </i>
   <i type="logical" name="LSCALU"> F  </i>
   <i type="logical" name="LASYNC"> F  </i>
   <i type="logical" name="LORBITALREAL"> F  </i>
  </separator>
  <separator name="miscellaneous" >
   <i type="int" name="IDIOT">     3</i>
   <i type="int" name="PHON_NSTRUCT">    -1</i>
   <i type="logical" name="LMUSIC"> F  </i>
   <v name="POMASS">     28.08500000     12.01100000</v>
   <v name="DARWINR">      0.00000000      0.00000000</v>
   <v name="DARWINV">      1.00000000      1.00000000</v>
   <i type="logical" name="LCORR"> T  </i>
  </separator>
  <i type="logical" name="GGA_COMPAT"> T  </i>
  <i type="logical" name="LBERRY"> F  </i>
  <i type="int" name="ICORELEVEL">     0</i>
  <i type="logical" name="LDAU"> F  </i>
  <i type="int" name="I_CONSTRAINED_M">     0</i>
  <separator name="electronic exchange-correlation" >
   <i type="string" name="GGA">--</i>
   <i type="int" name="VOSKOWN">     0</i>
   <i type="logical" name="LHFCALC"> F  </i>
   <i type="string" name="PRECFOCK"></i>
   <i type="logical" name="LSYMGRAD"> F  </i>
   <i type="logical" name="LHFONE"> F  </i>
   <i type="logical" name="LRHFCALC"> F  </i>
   <i type="logical" name="LTHOMAS"> F  </i>
   <i type="logical" name="LMODELHF"> F  </i>
   <i type="logical" name="LFOCKACE"> F  </i>
   <i name="ENCUT4O">     -1.00000000</i>
   <i type="int" name="EXXOEP">     0</i>
   <i type="int" name="FOURORBIT">     0</i>
   <i name="AEXX">      0.00000000</i>
   <i name="HFALPHA">      0.00000000</i>
   <i name="MCALPHA">      0.00000000</i>
   <i name="ALDAX">      1.00000000</i>
   <i name="AGGAX">      1.00000000</i>
   <i name="ALDAC">      1.00000000</i>
   <i name="AGGAC">      1.00000000</i>
   <i type="int" name="NKREDX">     1</i>
   <i type="int" name="NKREDY">     1</i>
   <i type="int" name="NKREDZ">     1</i>
   <i type="logical" name="SHIFTRED"> F  </i>
   <i type="logical" name="ODDONLY"> F  </i>
   <i type="logical" name="EVENONLY"> F  </i>
   <i type="int" name="LMAXFOCK">     0</i>
   <i type="int" name="NMAXFOCKAE">     0</i>
   <i type="logical" name="LFOCKAEDFT"> F  </i>
   <i name="HFSCREEN">      0.00000000</i>
   <i name="HFSCREENC">      0.00000000</i>
   <i type="int" name="NBANDSGWLOW">     0</i>
  </separator>
  <separator name="vdW DFT" >
   <i type="logical" name="LUSE_VDW"> F  </i>
   <i name="Zab_VDW">     -0.84910000</i>
   <i name="PARAM1">      0.12340000</i>
   <i name="PARAM2">      1.00000000</i>
   <i name="PARAM3">      0.00000000</i>
  </separator>
  <separator name="model GW" >
   <i type="int" name="MODEL_GW">     0</i>
   <i name="MODEL_EPS0">      6.18828778</i>
   <i name="MODEL_ALPHA">      1.00000000</i>
  </separator>
  <separator name="linear response parameters" >
   <i type="logical" name="LEPSILON"> F  </i>
   <i type="logical" name="LRPA"> F  </i>
   <i type="logical" name="LNABLA"> F  </i>
   <i type="logical" name="LVEL"> F  </i>
   <i name="CSHIFT">      0.10000000</i>
   <i name="OMEGAMAX">     -1.00000000</i>
   <i name="DEG_THRESHOLD">      0.00200000</i>
   <i name="RTIME">     -0.10000000</i>
   <i name="WPLASMAI">      0.00000000</i>
   <v name="DFIELD">      0.00000000      0.00000000      0.00000000</v>
   <v name="WPLASMA">      0.00000000      0.00000000      0.00000000      0.00000000      0.00000000      0.00000000      0.00000000      0.00000000      0.00000000</v>
  </separator>
  <separator name="orbital magnetization" >
   <i type="logical" name="NUCIND"> F  </i>
   <v name="MAGPOS">      0.00000000      0.00000000      0.00000000</v>
   <i type="logical" name="LNICSALL"> T  </i>
   <i type="logical" name="ORBITALMAG"> F  </i>
   <i type="logical" name="LMAGBLOCH"> F  </i>
   <i type="logical" name="LCHIMAG"> F  </i>
   <i type="logical" name="LGAUGE"> T  </i>
   <i type="int" name="MAGATOM">     0</i>
   <v name="MAGDIPOL">      0.00000000      0.00000000      0.00000000</v>
   <v name="AVECCONST">      0.00000000      0.00000000      0.00000000</v>
  </separator>
  <separator name="response functions" >
   <i type="logical" name="LFINITE_TEMPERATURE"> F  </i>
   <i type="logical" name="LADDER"> F  </i>
   <i type="logical" name="LRPAFORCE"> F  </i>
   <i type="logical" name="LFXC"> F  </i>
   <i type="logical" name="LHARTREE"> T  </i>
   <i type="int" name="IBSE">     0</i>
   <v type="int" name="KPOINT">    -1     0     0     0</v>
   <i type="logical" name="LTCTC"> F  </i>
   <i type="logical" name="LTCTE"> F  </i>
   <i type="logical" name="LTETE"> F  </i>
   <i type="logical" name="LTRIPLET"> F  </i>
   <i type="logical" name="LFXCEPS"> F  </i>
   <i type="logical" name="LFXHEG"> F  </i>
   <i type="int" name="NATURALO">     2</i>
   <i type="logical" name="LHOLEGF"> F  </i>
   <i type="logical" name="L2ORDER"> F  </i>
   <i type="logical" name="LDMP1"> F  </i>
   <i type="logical" name="LMP2LT"> F  </i>
   <i type="logical" name="LSMP2LT"> F  </i>
   <i type="logical" name="LGWLF"> F  </i>
   <i name="ENCUTGW">     -2.00000000</i>
   <i name="ENCUTGWSOFT">     -2.00000000</i>
   <i name="ENCUTLF">     -1.00000000</i>
   <i type="logical" name="LESF_SPLINES"> F  </i>
   <i type="int" name="LMAXMP2">    -1</i>
   <i name="SCISSOR">      0.00000000</i>
   <i type="int" name="NOMEGA">     0</i>
   <i type="int" name="NOMEGAR">     0</i>
   <i type="int" name="NBANDSGW">    -1</i>
   <i type="int" name="NBANDSO">    -1</i>
   <i type="int" name="NBANDSV">    -1</i>
   <i type="int" name="NELMGW">     1</i>
   <i type="int" name="NELMHF">     1</i>
   <i type="int" name="DIM">     3</i>
   <i type="int" name="IESPILON">     4</i>
   <i type="int" name="ANTIRES">     0</i>
   <i name="OMEGAMAX">    -30.00000000</i>
   <i name="OMEGAMIN">    -30.00000000</i>
   <i name="OMEGATL">   -200.00000000</i>
   <i type="int" name="OMEGAGRID">     0</i>
   <i name="CSHIFT">     -0.10000000</i>
   <i type="logical" name="LSELFENERGY"> F  </i>
   <i type="logical" name="LSPECTRAL"> F  </i>
   <i type="logical" name="LSPECTRALGW"> F  </i>
   <i type="logical" name="LSINGLES"> F  </i>
   <i type="logical" name="LFERMIGW"> F  </i>
   <i type="logical" name="ODDONLYGW"> F  </i>
   <i type="logical" name="EVENONLYGW"> F  </i>
   <i type="int" name="NKREDLFX">     1</i>
   <i type="int" name="NKREDLFY">     1</i>
   <i type="int" name="NKREDLFZ">     1</i>
   <i type="int" name="MAXMEM">  2800</i>
   <i type="int" name="TELESCOPE">     0</i>
   <i type="int" name="NTAUPAR">    -1</i>
   <i type="int" name="NOMEGAPAR">    -1</i>
   <i name="DAMP_NEWTON">      0.80000001</i>
   <i name="LAMBDA">      1.00000000</i>
  </separator>
  <separator name="External order field" >
   <i name="OFIELD_KAPPA">      0.00000000</i>
   <v name="OFIELD_K">      0.00000000      0.00000000      0.00000000</v>
   <i name="OFIELD_Q6_NEAR">      0.00000000</i>
   <i name="OFIELD_Q6_FAR">      0.00000000</i>
   <i name="OFIELD_A">      0.00000000</i>
  </separator>
  <separator name="optional k-points parameters" >
   <i type="int" name="KPOINTS_OPT_MODE">     1</i>
   <i type="logical" name="LKPOINTS_OPT"> F  </i>
  </separator>
  <separator name="solvation model" >
   <i type="logical" name="LSOL"> F  </i>
  </separator>
 </parameters>
 <atominfo>
  <atoms>      12 </atoms>
  <types>       2 </types>
  <array name="atoms" >
   <dimension dim="1">ion</dimension>
   <field type="string">element</field>
   <field type="int">atomtype</field>
   <set>
    <rc><c>Si</c><c>   1</c></rc>
    <rc><c>Si</c><c>   1</c></rc>
    <rc><c>Si</c><c>   1</c></rc>
    <rc><c>Si</c><c>   1</c></rc>
    <rc><c>Si</c><c>   1</c></rc>
    <rc><c>Si</c><c>   1</c></rc>
    <rc><c>C </c><c>   2</c></rc>
    <rc><c>C </c><c>   2</c></rc>
    <rc><c>C </c><c>   2</c></rc>
    <rc><c>C </c><c>   2</c></rc>
    <rc><c>C </c><c>   2</c></rc>
    <rc><c>C </c><c>   2</c></rc>
   </set>
  </array>
  <array name="atomtypes" >
   <dimension dim="1">type</dimension>
   <field type="int">atomspertype</field>
   <field type="string">element</field>
   <field>mass</field>
   <field>valence</field>
   <field type="string">pseudopotential</field>
   <set>
    <rc><c>   6</c><c>Si</c><c>     28.08500000</c><c>      4.00000000</c><c> PAW_PBE Si 05Jan2001                   </c></rc>
    <rc><c>   6</c><c>C </c><c>     12.01100000</c><c>      4.00000000</c><c> PAW_PBE C 08Apr2002                    </c></rc>
   </set>
  </array>
 </atominfo>
 <structure name="initialpos" >
  <crystal>
   <varray name="basis" >
    <v>       3.07662106       0.00000000       0.00000000 </v>
    <v>      -1.53831053       2.66443199       0.00000000 </v>
    <v>       0.00000000       0.00000000      15.09808445 </v>
   </varray>
   <i name="volume">    123.76575565 </i>
   <varray name="rec_basis" >
    <v>       0.32503190       0.18765726       0.00000000 </v>
    <v>       0.00000000       0.37531451       0.00000000 </v>
    <v>       0.00000000       0.00000000       0.06623357 </v>
   </varray>
  </crystal>
  <varray name="positions" >
   <v>       0.00000000       0.00000000       0.49972942 </v>
   <v>       0.00000000       0.00000000       0.99972942 </v>
   <v>       0.33333334       0.66666669       0.16650060 </v>
   <v>       0.66666666       0.33333331       0.66650060 </v>
   <v>       0.33333334       0.66666669       0.83298615 </v>
   <v>       0.66666666       0.33333331       0.33298615 </v>
   <v>       0.00000000       0.00000000       0.37436641 </v>
   <v>       0.00000000       0.00000000       0.87436641 </v>
   <v>       0.33333334       0.66666669       0.04152164 </v>
   <v>       0.66666666       0.33333331       0.54152164 </v>
   <v>       0.33333334       0.66666669       0.70799678 </v>
   <v>       0.66666666       0.33333331       0.20799678 </v>
  </varray>
 </structure>
 <calculation>
  <scstep>
   <time name="dav">   10.49    1.61</time>
   <time name="total">   11.48    1.76</time>
   <energy>
    <i name="alphaZ">     66.98390366 </i>
    <i name="ewald">  -1709.66497520 </i>
    <i name="hartreedc">   -124.96193871 </i>
    <i name="XCdc">     31.29639965 </i>
    <i name="pawpsdc">    424.85428292 </i>
    <i name="pawaedc">   -326.19711695 </i>
    <i name="eentropy">     -0.00848939 </i>
    <i name="bandstr">    286.45946924 </i>
    <i name="atom">   1501.29283077 </i>
    <i name="e_fr_energy">    150.05436599 </i>
    <i name="e_wo_entrp">    150.06285537 </i>
    <i name="e_0_energy">    150.05861068 </i>
   </energy>
  </scstep>
  <scstep>
   <time name="dav">   13.74    1.98</time>
   <time name="total">   13.75    1.98</time>
   <energy>
    <i name="e_fr_energy">    -88.77321165 </i>
    <i name="e_wo_entrp">    -88.77321165 </i>
    <i name="e_0_energy">    -88.77321165 </i>
   </energy>
  </scstep>
  <scstep>
   <time name="dav">   12.68    1.84</time>
   <time name="total">   12.69    1.84</time>
   <energy>
    <i name="e_fr_energy">   -101.31733696 </i>
    <i name="e_wo_entrp">   -101.31733696 </i>
    <i name="e_0_energy">   -101.31733696 </i>
   </energy>
  </scstep>
  <scstep>
   <time name="dav">   12.30    1.78</time>
   <time name="total">   12.31    1.78</time>
   <energy>
    <i name="e_fr_energy">   -101.54566766 </i>
    <i name="e_wo_entrp">   -101.54566766 </i>
    <i name="e_0_energy">   -101.54566766 </i>
   </energy>
  </scstep>
  <scstep>
   <time name="dav">   11.29    1.63</time>
   <time name="total">   11.81    1.71</time>
   <energy>
    <i name="e_fr_energy">   -101.55121312 </i>
    <i name="e_wo_entrp">   -101.55121312 </i>
    <i name="e_0_energy">   -101.55121312 </i>
   </energy>
  </scstep>
  <scstep>
   <time name="diag">    0.64    0.09</time>
   <time name="diis">    3.13    1.13</time>
   <time name="orth">    0.08    0.04</time>
   <time name="total">    4.97    1.45</time>
   <energy>
    <i name="e_fr_energy">    -90.26617942 </i>
    <i name="e_wo_entrp">    -90.26617942 </i>
    <i name="e_0_energy">    -90.26617942 </i>
   </energy>
  </scstep>
  <scstep>
   <time name="diag">    0.62    0.09</time>
   <time name="diis">    3.08    1.11</time>
   <time name="orth">    0.08    0.04</time>
   <time name="total">    4.86    1.42</time>
   <energy>
    <i name="e_fr_energy">    -90.49003719 </i>
    <i name="e_wo_entrp">    -90.49003719 </i>
    <i name="e_0_energy">    -90.49003719 </i>
   </energy>
  </scstep>
  <scstep>
   <time name="diag">    0.61    0.09</time>
   <time name="diis">    3.09    1.11</time>
   <time name="orth">    0.08    0.04</time>
   <time name="total">    4.86    1.42</time>
   <energy>
    <i name="e_fr_energy">    -90.64640991 </i>
    <i name="e_wo_entrp">    -90.64640991 </i>
    <i name="e_0_energy">    -90.64640991 </i>
   </energy>
  </scstep>
  <scstep>
   <time name="diag">    0.61    0.09</time>
   <time name="diis">    3.13    1.12</time>
   <time name="orth">    0.08    0.04</time>
   <time name="total">    4.90    1.44</time>
   <energy>
    <i name="e_fr_energy">    -90.34770533 </i>
    <i name="e_wo_entrp">    -90.34770533 </i>
    <i name="e_0_energy">    -90.34770533 </i>
   </energy>
  </scstep>
  <scstep>
   <time name="diag">    0.61    0.09</time>
   <time name="diis">    3.11    1.12</time>
   <time name="orth">    0.08    0.04</time>
   <time name="total">    4.87    1.43</time>
   <energy>
    <i name="e_fr_energy">    -90.33849756 </i>
    <i name="e_wo_entrp">    -90.33849756 </i>
    <i name="e_0_energy">    -90.33849756 </i>
   </energy>
  </scstep>
  <scstep>
   <time name="diag">    0.62    0.09</time>
   <time name="diis">    3.25    1.20</time>
   <time name="orth">    0.08    0.04</time>
   <time name="total">    5.05    1.52</time>
   <energy>
    <i name="e_fr_energy">    -90.33927338 </i>
    <i name="e_wo_entrp">    -90.33927338 </i>
    <i name="e_0_energy">    -90.33927338 </i>
   </energy>
  </scstep>
  <scstep>
   <time name="diag">    0.61    0.09</time>
   <time name="diis">    3.37    1.24</time>
   <time name="orth">    0.08    0.04</time>
   <time name="total">    5.15    1.56</time>
   <energy>
    <i name="e_fr_energy">    -90.33904647 </i>
    <i name="e_wo_entrp">    -90.33904647 </i>
    <i name="e_0_energy">    -90.33904647 </i>
   </energy>
  </scstep>
  <scstep>
   <time name="diag">    0.62    0.09</time>
   <time name="diis">    3.17    1.15</time>
   <time name="orth">    0.08    0.04</time>
   <time name="total">    4.95    1.46</time>
   <energy>
    <i name="e_fr_energy">    -90.33917095 </i>
    <i name="e_wo_entrp">    -90.33917095 </i>
    <i name="e_0_energy">    -90.33917095 </i>
   </energy>
  </scstep>
  <scstep>
   <time name="diag">    0.62    0.09</time>
   <time name="diis">    3.15    1.14</time>
   <time name="orth">    0.08    0.04</time>
   <time name="total">    4.94    1.45</time>
   <energy>
    <i name="e_fr_energy">    -90.33912403 </i>
    <i name="e_wo_entrp">    -90.33912403 </i>
    <i name="e_0_energy">    -90.33912403 </i>
   </energy>
  </scstep>
  <scstep>
   <time name="diag">    0.61    0.09</time>
   <time name="diis">    3.18    1.15</time>
   <time name="orth">    0.08    0.04</time>
   <time name="total">    4.96    1.47</time>
   <energy>
    <i name="e_fr_energy">    -90.33912911 </i>
    <i name="e_wo_entrp">    -90.33912911 </i>
    <i name="e_0_energy">    -90.33912911 </i>
   </energy>
  </scstep>
  <scstep>
   <time name="diag">    0.61    0.09</time>
   <time name="diis">    2.91    1.02</time>
   <time name="orth">    0.08    0.04</time>
   <time name="total">    4.39    1.26</time>
   <energy>
    <i name="alphaZ">     66.98390366 </i>
    <i name="ewald">  -1709.66497520 </i>
    <i name="hartreedc">   -191.95334168 </i>
    <i name="XCdc">     37.72760886 </i>
    <i name="pawpsdc">    605.82832776 </i>
    <i name="pawaedc">   -508.49840754 </i>
    <i name="eentropy">     -0.00000000 </i>
    <i name="bandstr">    107.94492426 </i>
    <i name="atom">   1501.29283077 </i>
    <i name="e_fr_energy">    -90.33912912 </i>
    <i name="e_wo_entrp">    -90.33912912 </i>
    <i name="e_0_energy">    -90.33912912 </i>
   </energy>
  </scstep>
  <structure>
   <crystal>
    <varray name="basis" >
     <v>       3.07662106       0.00000000       0.00000000 </v>
     <v>      -1.53831053       2.66443199       0.00000000 </v>
     <v>       0.00000000       0.00000000      15.09808445 </v>
    </varray>
    <i name="volume">    123.76575565 </i>
    <varray name="rec_basis" >
     <v>       0.32503190       0.18765726       0.00000000 </v>
     <v>       0.00000000       0.37531451       0.00000000 </v>
     <v>       0.00000000       0.00000000       0.06623357 </v>
    </varray>
   </crystal>
   <varray name="positions" >
    <v>       0.00000000       0.00000000       0.49972942 </v>
    <v>       0.00000000       0.00000000       0.99972942 </v>
    <v>       0.33333334       0.66666669       0.16650060 </v>
    <v>       0.66666666       0.33333331       0.66650060 </v>
    <v>       0.33333334       0.66666669       0.83298615 </v>
    <v>       0.66666666       0.33333331       0.33298615 </v>
    <v>       0.00000000       0.00000000       0.37436641 </v>
    <v>       0.00000000       0.00000000       0.87436641 </v>
    <v>       0.33333334       0.66666669       0.04152164 </v>
    <v>       0.66666666       0.33333331       0.54152164 </v>
    <v>       0.33333334       0.66666669       0.70799678 </v>
    <v>       0.66666666       0.33333331       0.20799678 </v>
   </varray>
  </structure>
  <varray name="forces" >
   <v>       0.00000000       0.00000000      -0.00804331 </v>
   <v>      -0.00000000       0.00000000      -0.00804331 </v>
   <v>       0.00000000       0.00000000       0.00121477 </v>
   <v>      -0.00000000      -0.00000000       0.00121477 </v>
   <v>       0.00000000       0.00000000       0.00225120 </v>
   <v>      -0.00000000       0.00000000       0.00225120 </v>
   <v>       0.00000000      -0.00000000       0.00803243 </v>
   <v>      -0.00000000       0.00000000       0.00803243 </v>
   <v>       0.00000000       0.00000000      -0.00430347 </v>
   <v>       0.00000000      -0.00000000      -0.00430347 </v>
   <v>      -0.00000000      -0.00000000       0.00084838 </v>
   <v>      -0.00000000       0.00000000       0.00084838 </v>
  </varray>
  <varray name="stress" >
   <v>      38.69655648       0.00000000       0.00000000 </v>
   <v>       0.00000000      38.69655648       0.00000000 </v>
   <v>       0.00000000       0.00000000      37.82733325 </v>
  </varray>
  <energy>
   <i name="e_fr_energy">    -90.33912912 </i>
   <i name="e_wo_entrp">    -90.33912912 </i>
   <i name="e_0_energy">    -90.33912912 </i>
  </energy>
  <time name="totalsc">  128.81   28.02</time>
 </calculation>
 <calculation>
  <scstep>
   <time name="dav">   10.93    1.58</time>
   <time name="total">   12.23    1.77</time>
   <energy>
    <i name="alphaZ">     64.64312058 </i>
    <i name="ewald">  -1689.51349284 </i>
    <i name="hartreedc">   -189.69249144 </i>
    <i name="XCdc">     36.18454647 </i>
    <i name="pawpsdc">    605.83742626 </i>
    <i name="pawaedc">   -508.50743491 </i>
    <i name="eentropy">     -0.00000000 </i>
    <i name="bandstr">     89.37688970 </i>
    <i name="atom">   1501.29283077 </i>
    <i name="e_fr_energy">    -90.37860540 </i>
    <i name="e_wo_entrp">    -90.37860540 </i>
    <i name="e_0_energy">    -90.37860540 </i>
   </energy>
  </scstep>
  <scstep>
   <time name="diag">    0.64    0.09</time>
   <time name="diis">    3.12    1.13</time>
   <time name="orth">    0.08    0.04</time>
   <time name="total">    4.96    1.45</time>
   <energy>
    <i name="e_fr_energy">    -90.34644213 </i>
    <i name="e_wo_entrp">    -90.34644213 </i>
    <i name="e_0_energy">    -90.34644213 </i>
   </energy>
  </scstep>
  <scstep>
   <time name="diag">    0.62    0.09</time>
   <time name="diis">    3.13    1.12</time>
   <time name="orth">    0.08    0.04</time>
   <time name="total">    4.95    1.44</time>
   <energy>
    <i name="e_fr_energy">    -90.33900587 </i>
    <i name="e_wo_entrp">    -90.33900587 </i>
    <i name="e_0_energy">    -90.33900587 </i>
   </energy>
  </scstep>
  <scstep>
   <time name="diag">    0.62    0.09</time>
   <time name="diis">    3.15    1.13</time>
   <time name="orth">    0.08    0.04</time>
   <time name="total">    4.98    1.45</time>
   <energy>
    <i name="e_fr_energy">    -90.33836506 </i>
    <i name="e_wo_entrp">    -90.33836506 </i>
    <i name="e_0_energy">    -90.33836506 </i>
   </energy>
  </scstep>
  <scstep>
   <time name="diag">    0.62    0.09</time>
   <time name="diis">    3.15    1.13</time>
   <time name="orth">    0.08    0.04</time>
   <time name="total">    4.99    1.45</time>
   <energy>
    <i name="e_fr_energy">    -90.33786785 </i>
    <i name="e_wo_entrp">    -90.33786785 </i>
    <i name="e_0_energy">    -90.33786785 </i>
   </energy>
  </scstep>
  <scstep>
   <time name="diag">    0.62    0.09</time>
   <time name="diis">    3.18    1.15</time>
   <time name="orth">    0.08    0.04</time>
   <time name="total">    5.08    1.48</time>
   <energy>
    <i name="e_fr_energy">    -90.33792213 </i>
    <i name="e_wo_entrp">    -90.33792213 </i>
    <i name="e_0_energy">    -90.33792213 </i>
   </energy>
  </scstep>
  <scstep>
   <time name="diag">    0.62    0.09</time>
   <time name="diis">    3.15    1.13</time>
   <time name="orth">    0.08    0.04</time>
   <time name="total">    5.02    1.46</time>
   <energy>
    <i name="e_fr_energy">    -90.33790883 </i>
    <i name="e_wo_entrp">    -90.33790883 </i>
    <i name="e_0_energy">    -90.33790883 </i>
   </energy>
  </scstep>
  <scstep>
   <time name="diag">    0.62    0.09</time>
   <time name="diis">    3.16    1.14</time>
   <time name="orth">    0.08    0.04</time>
   <time name="total">    4.99    1.46</time>
   <energy>
    <i name="e_fr_energy">    -90.33790929 </i>
    <i name="e_wo_entrp">    -90.33790929 </i>
    <i name="e_0_energy">    -90.33790929 </i>
   </energy>
  </scstep>
  <scstep>
   <time name="diag">    0.62    0.09</time>
   <time name="diis">    3.12    1.11</time>
   <time name="orth">    0.08    0.04</time>
   <time name="total">    4.95    1.43</time>
   <energy>
    <i name="e_fr_energy">    -90.33791055 </i>
    <i name="e_wo_entrp">    -90.33791055 </i>
    <i name="e_0_energy">    -90.33791055 </i>
   </energy>
  </scstep>
  <scstep>
   <time name="diag">    0.62    0.09</time>
   <time name="diis">    2.37    0.74</time>
   <time name="orth">    0.08    0.04</time>
   <time name="total">    3.92    1.00</time>
   <energy>
    <i name="alphaZ">     64.64312058 </i>
    <i name="ewald">  -1689.51349284 </i>
    <i name="hartreedc">   -194.04441035 </i>
    <i name="XCdc">     36.42860710 </i>
    <i name="pawpsdc">    590.26303428 </i>
    <i name="pawaedc">   -492.77136953 </i>
    <i name="eentropy">     -0.00000000 </i>
    <i name="bandstr">     93.36376971 </i>
    <i name="atom">   1501.29283077 </i>
    <i name="e_fr_energy">    -90.33791028 </i>
    <i name="e_wo_entrp">    -90.33791028 </i>
    <i name="e_0_energy">    -90.33791028 </i>
   </energy>
  </scstep>
  <structure>
   <crystal>
    <varray name="basis" >
     <v>       3.11359418       0.00000000       0.00000000 </v>
     <v>      -1.55679709       2.69645166       0.00000000 </v>
     <v>       0.00000000       0.00000000      15.27544925 </v>
    </varray>
    <i name="volume">    128.24742027 </i>
    <varray name="rec_basis" >
     <v>       0.32117223       0.18542888      -0.00000000 </v>
     <v>       0.00000000       0.37085775      -0.00000000 </v>
     <v>       0.00000000       0.00000000       0.06546452 </v>
    </varray>
   </crystal>
   <varray name="positions" >
    <v>       0.00000000       0.00000000       0.49970372 </v>
    <v>      -0.00000000       0.00000000       0.99970372 </v>
    <v>       0.33333334       0.66666669       0.16650448 </v>
    <v>       0.66666666       0.33333331       0.66650448 </v>
    <v>       0.33333334       0.66666669       0.83299334 </v>
    <v>       0.66666666       0.33333331       0.33299334 </v>
    <v>       0.00000000      -0.00000000       0.37439208 </v>
    <v>      -0.00000000       0.00000000       0.87439208 </v>
    <v>       0.33333334       0.66666669       0.04150789 </v>
    <v>       0.66666666       0.33333331       0.54150789 </v>
    <v>       0.33333334       0.66666669       0.70799949 </v>
    <v>       0.66666666       0.33333331       0.20799949 </v>
   </varray>
  </structure>
  <varray name="forces" >
   <v>       0.00000000       0.00000000       0.01511771 </v>
   <v>       0.00000000       0.00000000       0.01511771 </v>
   <v>      -0.00000000       0.00000000      -0.00596348 </v>
   <v>       0.00000000       0.00000000      -0.00596348 </v>
   <v>       0.00000000      -0.00000000      -0.00048098 </v>
   <v>       0.00000000       0.00000000      -0.00048098 </v>
   <v>      -0.00000000       0.00000000      -0.01391311 </v>
   <v>      -0.00000000       0.00000000      -0.01391311 </v>
   <v>       0.00000000      -0.00000000       0.00013831 </v>
   <v>       0.00000000       0.00000000       0.00013831 </v>
   <v>      -0.00000000      -0.00000000       0.00510156 </v>
   <v>      -0.00000000      -0.00000000       0.00510156 </v>
  </varray>
  <varray name="stress" >
   <v>     -37.18735222       0.00000000       0.00000000 </v>
   <v>       0.00000000     -37.18735222       0.00000000 </v>
   <v>       0.00000000      -0.00000000     -35.98681684 </v>
  </varray>
  <energy>
   <i name="e_fr_energy">    -90.33791028 </i>
   <i name="e_wo_entrp">    -90.33791028 </i>
   <i name="e_0_energy">    -90.33791028 </i>
  </energy>
  <time name="totalsc">   67.79   17.25</time>
 </calculation>
 <calculation>
  <scstep>
   <time name="dav">   11.03    1.59</time>
   <time name="total">   12.33    1.77</time>
   <energy>
    <i name="alphaZ">     65.82201460 </i>
    <i name="ewald">  -1699.72219979 </i>
    <i name="hartreedc">   -195.22796430 </i>
    <i name="XCdc">     37.21104894 </i>
    <i name="pawpsdc">    590.27729705 </i>
    <i name="pawaedc">   -492.78578727 </i>
    <i name="eentropy">     -0.00000000 </i>
    <i name="bandstr">    102.75737036 </i>
    <i name="atom">   1501.29283077 </i>
    <i name="e_fr_energy">    -90.37538965 </i>
    <i name="e_wo_entrp">    -90.37538965 </i>
    <i name="e_0_energy">    -90.37538965 </i>
   </energy>
  </scstep>
  <scstep>
   <time name="diag">    0.62    0.09</time>
   <time name="diis">    3.15    1.13</time>
   <time name="orth">    0.08    0.04</time>
   <time name="total">    4.98    1.45</time>
   <energy>
    <i name="e_fr_energy">    -90.36694729 </i>
    <i name="e_wo_entrp">    -90.36694729 </i>
    <i name="e_0_energy">    -90.36694729 </i>
   </energy>
  </scstep>
  <scstep>
   <time name="diag">    0.62    0.09</time>
   <time name="diis">    3.14    1.13</time>
   <time name="orth">    0.08    0.04</time>
   <time name="total">    4.97    1.45</time>
   <energy>
    <i name="e_fr_energy">    -90.36512200 </i>
    <i name="e_wo_entrp">    -90.36512200 </i>
    <i name="e_0_energy">    -90.36512200 </i>
   </energy>
  </scstep>
  <scstep>
   <time name="diag">    0.62    0.09</time>
   <time name="diis">    3.15    1.13</time>
   <time name="orth">    0.08    0.04</time>
   <time name="total">    4.98    1.45</time>
   <energy>
    <i name="e_fr_energy">    -90.36494687 </i>
    <i name="e_wo_entrp">    -90.36494687 </i>
    <i name="e_0_energy">    -90.36494687 </i>
   </energy>
  </scstep>
  <scstep>
   <time name="diag">    0.62    0.09</time>
   <time name="diis">    3.15    1.13</time>
   <time name="orth">    0.08    0.04</time>
   <time name="total">    4.98    1.45</time>
   <energy>
    <i name="e_fr_energy">    -90.36484168 </i>
    <i name="e_wo_entrp">    -90.36484168 </i>
    <i name="e_0_energy">    -90.36484168 </i>
   </energy>
  </scstep>
  <scstep>
   <time name="diag">    0.62    0.09</time>
   <time name="diis">    3.16    1.14</time>
   <time name="orth">    0.08    0.04</time>
   <time name="total">    5.00    1.46</time>
   <energy>
    <i name="e_fr_energy">    -90.36485510 </i>
    <i name="e_wo_entrp">    -90.36485510 </i>
    <i name="e_0_energy">    -90.36485510 </i>
   </energy>
  </scstep>
  <scstep>
   <time name="diag">    0.62    0.09</time>
   <time name="diis">    3.15    1.13</time>
   <time name="orth">    0.08    0.04</time>
   <time name="total">    4.98    1.45</time>
   <energy>
    <i name="e_fr_energy">    -90.36485016 </i>
    <i name="e_wo_entrp">    -90.36485016 </i>
    <i name="e_0_energy">    -90.36485016 </i>
   </energy>
  </scstep>
  <scstep>
   <time name="diag">    0.63    0.09</time>
   <time name="diis">    2.76    0.94</time>
   <time name="orth">    0.08    0.04</time>
   <time name="total">    4.30    1.19</time>
   <energy>
    <i name="alphaZ">     65.82201460 </i>
    <i name="ewald">  -1699.72219979 </i>
    <i name="hartreedc">   -192.97960795 </i>
    <i name="XCdc">     37.08637021 </i>
    <i name="pawpsdc">    598.06579976 </i>
    <i name="pawaedc">   -500.65525494 </i>
    <i name="eentropy">     -0.00000000 </i>
    <i name="bandstr">    100.72519719 </i>
    <i name="atom">   1501.29283077 </i>
    <i name="e_fr_energy">    -90.36485016 </i>
    <i name="e_wo_entrp">    -90.36485016 </i>
    <i name="e_0_energy">    -90.36485016 </i>
   </energy>
  </scstep>
  <structure>
   <crystal>
    <varray name="basis" >
     <v>       3.09475417       0.00000000       0.00000000 </v>
     <v>      -1.54737708       2.68013573       0.00000000 </v>
     <v>       0.00000000       0.00000000      15.18507131 </v>
    </varray>
    <i name="volume">    125.95046663 </i>
    <varray name="rec_basis" >
     <v>       0.32312744       0.18655772      -0.00000000 </v>
     <v>       0.00000000       0.37311543      -0.00000000 </v>
     <v>       0.00000000       0.00000000       0.06585415 </v>
    </varray>
   </crystal>
   <varray name="positions" >
    <v>       0.00000000       0.00000000       0.49971666 </v>
    <v>      -0.00000000       0.00000000       0.99971666 </v>
    <v>       0.33333334       0.66666669       0.16650253 </v>
    <v>       0.66666666       0.33333331       0.66650253 </v>
    <v>       0.33333334       0.66666669       0.83298972 </v>
    <v>       0.66666666       0.33333331       0.33298972 </v>
    <v>       0.00000000      -0.00000000       0.37437915 </v>
    <v>      -0.00000000       0.00000000       0.87437915 </v>
    <v>       0.33333334       0.66666669       0.04151481 </v>
    <v>       0.66666666       0.33333331       0.54151481 </v>
    <v>       0.33333334       0.66666669       0.70799813 </v>
    <v>       0.66666666       0.33333331       0.20799813 </v>
   </varray>
  </structure>
  <varray name="forces" >
   <v>      -0.00000000      -0.00000000       0.00321833 </v>
   <v>      -0.00000000       0.00000000       0.00321833 </v>
   <v>       0.00000000       0.00000000      -0.00255202 </v>
   <v>       0.00000000       0.00000000      -0.00255202 </v>
   <v>       0.00000000       0.00000000       0.00026374 </v>
   <v>      -0.00000000       0.00000000       0.00026374 </v>
   <v>      -0.00000000       0.00000000      -0.00249924 </v>
   <v>       0.00000000       0.00000000      -0.00249924 </v>
   <v>       0.00000000      -0.00000000       0.00096960 </v>
   <v>      -0.00000000       0.00000000       0.00096960 </v>
   <v>       0.00000000       0.00000000       0.00059959 </v>
   <v>      -0.00000000      -0.00000000       0.00059959 </v>
  </varray>
  <varray name="stress" >
   <v>      -0.05172562       0.00000000       0.00000000 </v>
   <v>       0.00000000      -0.05172562       0.00000000 </v>
   <v>       0.00000000       0.00000000       0.04778864 </v>
  </varray>
  <energy>
   <i name="e_fr_energy">    -90.36485016 </i>
   <i name="e_wo_entrp">    -90.36485016 </i>
   <i name="e_0_energy">    -90.36485016 </i>
  </energy>
  <time name="totalsc">   55.63   14.16</time>
  <eigenvalues>
   <array>
    <dimension dim="1">band</dimension>
    <dimension dim="2">kpoint</dimension>
    <dimension dim="3">spin</dimension>
    <field>eigene</field>
    <field>occ</field>
    <set>
     <set comment="spin 1">
      <set comment="kpoint 1">
       <r>   -7.3437    1.0000 </r>
       <r>   -6.8279    1.0000 </r>
       <r>   -6.7934    1.0000 </r>
       <r>   -5.3177    1.0000 </r>
       <r>   -5.2894    1.0000 </r>
       <r>   -3.8306    1.0000 </r>
       <r>   -0.5063    1.0000 </r>
       <r>    1.8027    1.0000 </r>
       <r>    1.8403    1.0000 </r>
       <r>    5.5832    1.0000 </r>
       <r>    5.6088    1.0000 </r>
       <r>    6.8594    1.0000 </r>
       <r>    6.8594    1.0000 </r>
       <r>    7.0457    1.0000 </r>
       <r>    7.0457    1.0000 </r>
       <r>    7.1524    1.0000 </r>
       <r>    7.1524    1.0000 </r>
       <r>    7.6183    1.0000 </r>
       <r>    7.6183    1.0000 </r>
       <r>    7.6998    1.0000 </r>
       <r>    7.6998    1.0000 </r>
       <r>    7.9634    1.0000 </r>
       <r>    8.0001    1.0000 </r>
       <r>    8.0001    1.0000 </r>
       <r>   13.0531    0.0000 </r>
       <r>   13.2255    0.0000 </r>
       <r>   13.6275    0.0000 </r>
       <r>   14.1379    0.0000 </r>
       <r>   14.1382    0.0000 </r>
       <r>   14.5389    0.0000 </r>
       <r>   14.8383    0.0000 </r>
      </set>
      <set comment="kpoint 2">
       <r>   -7.3047    1.0000 </r>
       <r>   -6.7894    1.0000 </r>
       <r>   -6.7548    1.0000 </r>
       <r>   -5.2811    1.0000 </r>
       <r>   -5.2528    1.0000 </r>
       <r>   -3.7977    1.0000 </r>
       <r>   -0.4706    1.0000 </r>
       <r>    1.8283    1.0000 </r>
       <r>    1.8660    1.0000 </r>
       <r>    5.5718    1.0000 </r>
       <r>    5.5996    1.0000 </r>
       <r>    6.6189    1.0000 </r>
       <r>    6.7765    1.0000 </r>
       <r>    6.8335    1.0000 </r>
       <r>    6.9386    1.0000 </r>
       <r>    6.9844    1.0000 </r>
       <r>    7.0802    1.0000 </r>
       <r>    7.4653    1.0000 </r>
       <r>    7.5493    1.0000 </r>
       <r>    7.5891    1.0000 </r>
       <r>    7.6639    1.0000 </r>
       <r>    7.8437    1.0000 </r>
       <r>    7.9377    1.0000 </r>
       <r>    7.9861    1.0000 </r>
       <r>   13.2033    0.0000 </r>
       <r>   13.3762    0.0000 </r>
       <r>   13.7404    0.0000 </r>
       <r>   14.2295    0.0000 </r>
       <r>   14.2455    0.0000 </r>
       <r>   14.5841    0.0000 </r>
       <r>   14.7611    0.0000 </r>
      </set>
      <set comment="kpoint 3">
       <r>   -7.1881    1.0000 </r>
       <r>   -6.6745    1.0000 </r>
       <r>   -6.6395    1.0000 </r>
       <r>   -5.1720    1.0000 </r>
       <r>   -5.1435    1.0000 </r>
       <r>   -3.6997    1.0000 </r>
       <r>   -0.3647    1.0000 </r>
       <r>    1.9016    1.0000 </r>
       <r>    1.9395    1.0000 </r>
       <r>    5.5001    1.0000 </r>
       <r>    5.5401    1.0000 </r>
       <r>    6.0016    1.0000 </r>
       <r>    6.2970    1.0000 </r>
       <r>    6.3932    1.0000 </r>
       <r>    6.5625    1.0000 </r>
       <r>    6.8140    1.0000 </r>
       <r>    6.8892    1.0000 </r>
       <r>    7.0539    1.0000 </r>
       <r>    7.1328    1.0000 </r>
       <r>    7.4328    1.0000 </r>
       <r>    7.4953    1.0000 </r>
       <r>    7.5552    1.0000 </r>
       <r>    7.8633    1.0000 </r>
       <r>    7.9340    1.0000 </r>
       <r>   13.3759    0.0000 </r>
       <r>   13.5947    0.0000 </r>
       <r>   13.7886    0.0000 </r>
       <r>   14.2716    0.0000 </r>
       <r>   14.3808    0.0000 </r>
       <r>   14.4960    0.0000 </r>
       <r>   14.7123    0.0000 </r>
      </set>
      <set comment="kpoint 4">
       <r>   -6.9946    1.0000 </r>
       <r>   -6.4842    1.0000 </r>
       <r>   -6.4485    1.0000 </r>
       <r>   -4.9921    1.0000 </r>
       <r>   -4.9632    1.0000 </r>
       <r>   -3.5398    1.0000 </r>
       <r>   -0.1918    1.0000 </r>
       <r>    2.0099    1.0000 </r>
       <r>    2.0475    1.0000 </r>
       <r>    5.1159    1.0000 </r>
       <r>    5.2180    1.0000 </r>
       <r>    5.2655    1.0000 </r>
       <r>    5.7079    1.0000 </r>
       <r>    5.7642    1.0000 </r>
       <r>    6.2779    1.0000 </r>
       <r>    6.5375    1.0000 </r>
       <r>    6.5705    1.0000 </r>
       <r>    6.5826    1.0000 </r>
       <r>    6.6285    1.0000 </r>
       <r>    6.9095    1.0000 </r>
       <r>    7.3379    1.0000 </r>
       <r>    7.3834    1.0000 </r>
       <r>    7.7401    1.0000 </r>
       <r>    7.8319    1.0000 </r>
       <r>   12.9749    0.0000 </r>
       <r>   13.3451    0.0000 </r>
       <r>   13.3871    0.0000 </r>
       <r>   14.0453    0.0000 </r>
       <r>   14.3859    0.0000 </r>
       <r>   14.6285    0.0000 </r>
       <r>   14.9305    0.0000 </r>
      </set>
      <set comment="kpoint 5">
       <r>   -6.7262    1.0000 </r>
       <r>   -6.2206    1.0000 </r>
       <r>   -6.1837    1.0000 </r>
       <r>   -4.7447    1.0000 </r>
       <r>   -4.7153    1.0000 </r>
       <r>   -3.3238    1.0000 </r>
       <r>    0.0409    1.0000 </r>
       <r>    2.1182    1.0000 </r>
       <r>    2.1523    1.0000 </r>
       <r>    4.2651    1.0000 </r>
       <r>    4.4346    1.0000 </r>
       <r>    4.5540    1.0000 </r>
       <r>    5.1584    1.0000 </r>
       <r>    5.2329    1.0000 </r>
       <r>    5.8886    1.0000 </r>
       <r>    5.9696    1.0000 </r>
       <r>    6.2646    1.0000 </r>
       <r>    6.2942    1.0000 </r>
       <r>    6.3407    1.0000 </r>
       <r>    6.5261    1.0000 </r>
       <r>    7.1362    1.0000 </r>
       <r>    7.1721    1.0000 </r>
       <r>    7.5667    1.0000 </r>
       <r>    7.6854    1.0000 </r>
       <r>   12.3662    0.0000 </r>
       <r>   12.7183    0.0000 </r>
       <r>   12.8972    0.0000 </r>
       <r>   13.5679    0.0000 </r>
       <r>   14.1165    0.0000 </r>
       <r>   14.6157    0.0000 </r>
       <r>   14.9121    0.0000 </r>
      </set>
      <set comment="kpoint 6">
       <r>   -6.3857    1.0000 </r>
       <r>   -5.8873    1.0000 </r>
       <r>   -5.8486    1.0000 </r>
       <r>   -4.4357    1.0000 </r>
       <r>   -4.4055    1.0000 </r>
       <r>   -3.0630    1.0000 </r>
       <r>    0.3161    1.0000 </r>
       <r>    2.1143    1.0000 </r>
       <r>    2.1539    1.0000 </r>
       <r>    3.4451    1.0000 </r>
       <r>    3.5937    1.0000 </r>
       <r>    3.7490    1.0000 </r>
       <r>    4.5190    1.0000 </r>
       <r>    4.6255    1.0000 </r>
       <r>    5.1490    1.0000 </r>
       <r>    5.6694    1.0000 </r>
       <r>    6.0170    1.0000 </r>
       <r>    6.0564    1.0000 </r>
       <r>    6.1252    1.0000 </r>
       <r>    6.3891    1.0000 </r>
       <r>    6.9170    1.0000 </r>
       <r>    6.9478    1.0000 </r>
       <r>    7.3535    1.0000 </r>
       <r>    7.5139    1.0000 </r>
       <r>   11.7764    0.0000 </r>
       <r>   12.0402    0.0000 </r>
       <r>   12.4383    0.0000 </r>
       <r>   13.0803    0.0000 </r>
       <r>   13.7701    0.0000 </r>
       <r>   14.2133    0.0000 </r>
       <r>   14.5795    0.0000 </r>
      </set>
      <set comment="kpoint 7">
       <r>   -5.9777    1.0000 </r>
       <r>   -5.4900    1.0000 </r>
       <r>   -5.4486    1.0000 </r>
       <r>   -4.0759    1.0000 </r>
       <r>   -4.0447    1.0000 </r>
       <r>   -2.7788    1.0000 </r>
       <r>    0.5863    1.0000 </r>
       <r>    1.7324    1.0000 </r>
       <r>    1.8847    1.0000 </r>
       <r>    2.7131    1.0000 </r>
       <r>    2.9507    1.0000 </r>
       <r>    3.0258    1.0000 </r>
       <r>    4.0447    1.0000 </r>
       <r>    4.1300    1.0000 </r>
       <r>    4.4108    1.0000 </r>
       <r>    5.3977    1.0000 </r>
       <r>    5.7617    1.0000 </r>
       <r>    5.7968    1.0000 </r>
       <r>    5.9688    1.0000 </r>
       <r>    6.3420    1.0000 </r>
       <r>    6.7043    1.0000 </r>
       <r>    6.7330    1.0000 </r>
       <r>    7.1296    1.0000 </r>
       <r>    7.3390    1.0000 </r>
       <r>   11.2535    0.0000 </r>
       <r>   11.4139    0.0000 </r>
       <r>   12.0385    0.0000 </r>
       <r>   12.6440    0.0000 </r>
       <r>   13.4404    0.0000 </r>
       <r>   13.7424    0.0000 </r>
       <r>   14.2977    0.0000 </r>
      </set>
      <set comment="kpoint 8">
       <r>   -5.5100    1.0000 </r>
       <r>   -5.0394    1.0000 </r>
       <r>   -4.9933    1.0000 </r>
       <r>   -3.6864    1.0000 </r>
       <r>   -3.6540    1.0000 </r>
       <r>   -2.5141    1.0000 </r>
       <r>    0.6977    1.0000 </r>
       <r>    1.0639    1.0000 </r>
       <r>    1.3298    1.0000 </r>
       <r>    2.0700    1.0000 </r>
       <r>    2.3191    1.0000 </r>
       <r>    2.4897    1.0000 </r>
       <r>    3.5239    1.0000 </r>
       <r>    3.9634    1.0000 </r>
       <r>    4.1715    1.0000 </r>
       <r>    5.1682    1.0000 </r>
       <r>    5.5435    1.0000 </r>
       <r>    5.5760    1.0000 </r>
       <r>    5.7029    1.0000 </r>
       <r>    6.2818    1.0000 </r>
       <r>    6.5165    1.0000 </r>
       <r>    6.5445    1.0000 </r>
       <r>    6.9239    1.0000 </r>
       <r>    7.1796    1.0000 </r>
       <r>   10.8030    0.0000 </r>
       <r>   10.9020    0.0000 </r>
       <r>   11.7115    0.0000 </r>
       <r>   12.2939    0.0000 </r>
       <r>   13.1654    0.0000 </r>
       <r>   13.3218    0.0000 </r>
       <r>   13.9718    0.0000 </r>
      </set>
      <set comment="kpoint 9">
       <r>   -4.9972    1.0000 </r>
       <r>   -4.5564    1.0000 </r>
       <r>   -4.5009    1.0000 </r>
       <r>   -3.3122    1.0000 </r>
       <r>   -3.2789    1.0000 </r>
       <r>   -2.3463    1.0000 </r>
       <r>    0.3421    1.0000 </r>
       <r>    0.4823    1.0000 </r>
       <r>    0.8297    1.0000 </r>
       <r>    1.4564    1.0000 </r>
       <r>    1.6135    1.0000 </r>
       <r>    2.4220    1.0000 </r>
       <r>    2.7891    1.0000 </r>
       <r>    4.0858    1.0000 </r>
       <r>    4.3658    1.0000 </r>
       <r>    4.9898    1.0000 </r>
       <r>    5.3538    1.0000 </r>
       <r>    5.3726    1.0000 </r>
       <r>    5.4035    1.0000 </r>
       <r>    6.1626    1.0000 </r>
       <r>    6.3664    1.0000 </r>
       <r>    6.3942    1.0000 </r>
       <r>    6.7281    1.0000 </r>
       <r>    7.0494    1.0000 </r>
       <r>   10.4253    0.0000 </r>
       <r>   10.5505    0.0000 </r>
       <r>   11.4607    0.0000 </r>
       <r>   12.0519    0.0000 </r>
       <r>   12.9026    0.0000 </r>
       <r>   13.0293    0.0000 </r>
       <r>   13.5259    0.0000 </r>
      </set>
      <set comment="kpoint 10">
       <r>   -4.4705    1.0000 </r>
       <r>   -4.0916    1.0000 </r>
       <r>   -4.0121    1.0000 </r>
       <r>   -3.0582    1.0000 </r>
       <r>   -3.0077    1.0000 </r>
       <r>   -2.3478    1.0000 </r>
       <r>   -0.1443    1.0000 </r>
       <r>    0.0643    1.0000 </r>
       <r>    0.5716    1.0000 </r>
       <r>    0.8192    1.0000 </r>
       <r>    1.0632    1.0000 </r>
       <r>    2.0919    1.0000 </r>
       <r>    2.7735    1.0000 </r>
       <r>    4.0929    1.0000 </r>
       <r>    4.6632    1.0000 </r>
       <r>    4.8680    1.0000 </r>
       <r>    5.0997    1.0000 </r>
       <r>    5.2555    1.0000 </r>
       <r>    5.2855    1.0000 </r>
       <r>    5.9784    1.0000 </r>
       <r>    6.2622    1.0000 </r>
       <r>    6.2900    1.0000 </r>
       <r>    6.5285    1.0000 </r>
       <r>    6.9578    1.0000 </r>
       <r>   10.1681    0.0000 </r>
       <r>   10.3312    0.0000 </r>
       <r>   11.2889    0.0000 </r>
       <r>   11.9189    0.0000 </r>
       <r>   12.6704    0.0000 </r>
       <r>   12.8101    0.0000 </r>
       <r>   13.3318    0.0000 </r>
      </set>
      <set comment="kpoint 11">
       <r>   -4.0224    1.0000 </r>
       <r>   -3.7898    1.0000 </r>
       <r>   -3.6366    1.0000 </r>
       <r>   -3.0404    1.0000 </r>
       <r>   -2.9257    1.0000 </r>
       <r>   -2.4391    1.0000 </r>
       <r>   -0.3525    1.0000 </r>
       <r>   -0.0754    1.0000 </r>
       <r>    0.3035    1.0000 </r>
       <r>    0.3231    1.0000 </r>
       <r>    1.0366    1.0000 </r>
       <r>    1.5172    1.0000 </r>
       <r>    3.2485    1.0000 </r>
       <r>    3.7714    1.0000 </r>
       <r>    4.8064    1.0000 </r>
       <r>    4.9177    1.0000 </r>
       <r>    5.0858    1.0000 </r>
       <r>    5.1961    1.0000 </r>
       <r>    5.2257    1.0000 </r>
       <r>    5.7922    1.0000 </r>
       <r>    6.2089    1.0000 </r>
       <r>    6.2368    1.0000 </r>
       <r>    6.3752    1.0000 </r>
       <r>    6.9106    1.0000 </r>
       <r>   10.0438    0.0000 </r>
       <r>   10.2246    0.0000 </r>
       <r>   11.2010    0.0000 </r>
       <r>   11.8702    0.0000 </r>
       <r>   12.5615    0.0000 </r>
       <r>   12.6308    0.0000 </r>
       <r>   13.3872    0.0000 </r>
      </set>
      <set comment="kpoint 12">
       <r>   -7.2269    1.0000 </r>
       <r>   -6.7128    1.0000 </r>
       <r>   -6.6779    1.0000 </r>
       <r>   -5.2083    1.0000 </r>
       <r>   -5.1799    1.0000 </r>
       <r>   -3.7322    1.0000 </r>
       <r>   -0.3999    1.0000 </r>
       <r>    1.8778    1.0000 </r>
       <r>    1.9157    1.0000 </r>
       <r>    5.5337    1.0000 </r>
       <r>    5.5676    1.0000 </r>
       <r>    6.2405    1.0000 </r>
       <r>    6.3881    1.0000 </r>
       <r>    6.5632    1.0000 </r>
       <r>    6.7265    1.0000 </r>
       <r>    6.7834    1.0000 </r>
       <r>    6.8934    1.0000 </r>
       <r>    7.2475    1.0000 </r>
       <r>    7.3813    1.0000 </r>
       <r>    7.3867    1.0000 </r>
       <r>    7.4848    1.0000 </r>
       <r>    7.7234    1.0000 </r>
       <r>    7.8966    1.0000 </r>
       <r>    7.9013    1.0000 </r>
       <r>   13.4223    0.0000 </r>
       <r>   13.6001    0.0000 </r>
       <r>   13.8466    0.0000 </r>
       <r>   14.2486    0.0000 </r>
       <r>   14.3637    0.0000 </r>
       <r>   14.4979    0.0000 </r>
       <r>   14.5990    0.0000 </r>
      </set>
      <set comment="kpoint 13">
       <r>   -7.0718    1.0000 </r>
       <r>   -6.5601    1.0000 </r>
       <r>   -6.5247    1.0000 </r>
       <r>   -5.0638    1.0000 </r>
       <r>   -5.0350    1.0000 </r>
       <r>   -3.6032    1.0000 </r>
       <r>   -0.2603    1.0000 </r>
       <r>    1.9692    1.0000 </r>
       <r>    2.0071    1.0000 </r>
       <r>    5.3616    1.0000 </r>
       <r>    5.4224    1.0000 </r>
       <r>    5.5612    1.0000 </r>
       <r>    5.8249    1.0000 </r>
       <r>    5.9728    1.0000 </r>
       <r>    6.3906    1.0000 </r>
       <r>    6.5371    1.0000 </r>
       <r>    6.5976    1.0000 </r>
       <r>    6.8305    1.0000 </r>
       <r>    6.8854    1.0000 </r>
       <r>    7.1483    1.0000 </r>
       <r>    7.2941    1.0000 </r>
       <r>    7.4980    1.0000 </r>
       <r>    7.7826    1.0000 </r>
       <r>    7.8215    1.0000 </r>
       <r>   13.3907    0.0000 </r>
       <r>   13.6721    0.0000 </r>
       <r>   13.7112    0.0000 </r>
       <r>   14.0691    0.0000 </r>
       <r>   14.3232    0.0000 </r>
       <r>   14.4822    0.0000 </r>
       <r>   14.7601    0.0000 </r>
      </set>
      <set comment="kpoint 14">
       <r>   -6.8409    1.0000 </r>
       <r>   -6.3332    1.0000 </r>
       <r>   -6.2968    1.0000 </r>
       <r>   -4.8500    1.0000 </r>
       <r>   -4.8208    1.0000 </r>
       <r>   -3.4150    1.0000 </r>
       <r>   -0.0571    1.0000 </r>
       <r>    2.0808    1.0000 </r>
       <r>    2.1171    1.0000 </r>
       <r>    4.6948    1.0000 </r>
       <r>    4.8135    1.0000 </r>
       <r>    4.9322    1.0000 </r>
       <r>    5.3089    1.0000 </r>
       <r>    5.3952    1.0000 </r>
       <r>    6.0329    1.0000 </r>
       <r>    6.1424    1.0000 </r>
       <r>    6.3215    1.0000 </r>
       <r>    6.3764    1.0000 </r>
       <r>    6.4601    1.0000 </r>
       <r>    6.7816    1.0000 </r>
       <r>    7.0795    1.0000 </r>
       <r>    7.2323    1.0000 </r>
       <r>    7.6452    1.0000 </r>
       <r>    7.6949    1.0000 </r>
       <r>   12.8329    0.0000 </r>
       <r>   13.1749    0.0000 </r>
       <r>   13.2803    0.0000 </r>
       <r>   13.8183    0.0000 </r>
       <r>   14.3574    0.0000 </r>
       <r>   14.5021    0.0000 </r>
       <r>   14.8755    0.0000 </r>
      </set>
      <set comment="kpoint 15">
       <r>   -6.5363    1.0000 </r>
       <r>   -6.0345    1.0000 </r>
       <r>   -5.9967    1.0000 </r>
       <r>   -4.5715    1.0000 </r>
       <r>   -4.5416    1.0000 </r>
       <r>   -3.1759    1.0000 </r>
       <r>    0.1988    1.0000 </r>
       <r>    2.1517    1.0000 </r>
       <r>    2.1820    1.0000 </r>
       <r>    3.8410    1.0000 </r>
       <r>    3.9998    1.0000 </r>
       <r>    4.1495    1.0000 </r>
       <r>    4.7536    1.0000 </r>
       <r>    4.8563    1.0000 </r>
       <r>    5.3938    1.0000 </r>
       <r>    5.7566    1.0000 </r>
       <r>    6.0583    1.0000 </r>
       <r>    6.1444    1.0000 </r>
       <r>    6.1983    1.0000 </r>
       <r>    6.4611    1.0000 </r>
       <r>    6.8499    1.0000 </r>
       <r>    6.9890    1.0000 </r>
       <r>    7.4748    1.0000 </r>
       <r>    7.5142    1.0000 </r>
       <r>   12.2319    0.0000 </r>
       <r>   12.5041    0.0000 </r>
       <r>   12.8164    0.0000 </r>
       <r>   13.3846    0.0000 </r>
       <r>   14.0546    0.0000 </r>
       <r>   14.4334    0.0000 </r>
       <r>   14.6506    0.0000 </r>
      </set>
      <set comment="kpoint 16">
       <r>   -6.1617    1.0000 </r>
       <r>   -5.6688    1.0000 </r>
       <r>   -5.6288    1.0000 </r>
       <r>   -4.2362    1.0000 </r>
       <r>   -4.2054    1.0000 </r>
       <r>   -2.9015    1.0000 </r>
       <r>    0.4791    1.0000 </r>
       <r>    1.9822    1.0000 </r>
       <r>    2.0659    1.0000 </r>
       <r>    3.0829    1.0000 </r>
       <r>    3.2380    1.0000 </r>
       <r>    3.3830    1.0000 </r>
       <r>    4.2107    1.0000 </r>
       <r>    4.3363    1.0000 </r>
       <r>    4.6733    1.0000 </r>
       <r>    5.4283    1.0000 </r>
       <r>    5.7307    1.0000 </r>
       <r>    5.8445    1.0000 </r>
       <r>    6.0772    1.0000 </r>
       <r>    6.3207    1.0000 </r>
       <r>    6.6327    1.0000 </r>
       <r>    6.7802    1.0000 </r>
       <r>    7.2826    1.0000 </r>
       <r>    7.3025    1.0000 </r>
       <r>   11.6795    0.0000 </r>
       <r>   11.8485    0.0000 </r>
       <r>   12.3979    0.0000 </r>
       <r>   12.9506    0.0000 </r>
       <r>   13.7156    0.0000 </r>
       <r>   14.0660    0.0000 </r>
       <r>   14.3527    0.0000 </r>
      </set>
      <set comment="kpoint 17">
       <r>   -5.7232    1.0000 </r>
       <r>   -5.2438    1.0000 </r>
       <r>   -5.2002    1.0000 </r>
       <r>   -3.8592    1.0000 </r>
       <r>   -3.8273    1.0000 </r>
       <r>   -2.6222    1.0000 </r>
       <r>    0.6982    1.0000 </r>
       <r>    1.4196    1.0000 </r>
       <r>    1.6306    1.0000 </r>
       <r>    2.3871    1.0000 </r>
       <r>    2.6776    1.0000 </r>
       <r>    2.7033    1.0000 </r>
       <r>    3.8525    1.0000 </r>
       <r>    3.9683    1.0000 </r>
       <r>    4.1773    1.0000 </r>
       <r>    5.1394    1.0000 </r>
       <r>    5.4513    1.0000 </r>
       <r>    5.5617    1.0000 </r>
       <r>    5.8732    1.0000 </r>
       <r>    6.2087    1.0000 </r>
       <r>    6.4491    1.0000 </r>
       <r>    6.6244    1.0000 </r>
       <r>    7.0618    1.0000 </r>
       <r>    7.1197    1.0000 </r>
       <r>   11.1849    0.0000 </r>
       <r>   11.2873    0.0000 </r>
       <r>   12.0472    0.0000 </r>
       <r>   12.5734    0.0000 </r>
       <r>   13.4075    0.0000 </r>
       <r>   13.6348    0.0000 </r>
       <r>   14.1560    0.0000 </r>
      </set>
      <set comment="kpoint 18">
       <r>   -5.2312    1.0000 </r>
       <r>   -4.7741    1.0000 </r>
       <r>   -4.7241    1.0000 </r>
       <r>   -3.4708    1.0000 </r>
       <r>   -3.4382    1.0000 </r>
       <r>   -2.3974    1.0000 </r>
       <r>    0.6106    1.0000 </r>
       <r>    0.7559    1.0000 </r>
       <r>    1.0623    1.0000 </r>
       <r>    1.7837    1.0000 </r>
       <r>    1.9665    1.0000 </r>
       <r>    2.3996    1.0000 </r>
       <r>    3.1355    1.0000 </r>
       <r>    4.0336    1.0000 </r>
       <r>    4.2575    1.0000 </r>
       <r>    4.9072    1.0000 </r>
       <r>    5.2198    1.0000 </r>
       <r>    5.3372    1.0000 </r>
       <r>    5.5721    1.0000 </r>
       <r>    6.0640    1.0000 </r>
       <r>    6.2953    1.0000 </r>
       <r>    6.5022    1.0000 </r>
       <r>    6.8489    1.0000 </r>
       <r>    6.9672    1.0000 </r>
       <r>   10.7409    0.0000 </r>
       <r>   10.8849    0.0000 </r>
       <r>   11.7703    0.0000 </r>
       <r>   12.2846    0.0000 </r>
       <r>   13.1333    0.0000 </r>
       <r>   13.2838    0.0000 </r>
       <r>   13.8219    0.0000 </r>
      </set>
      <set comment="kpoint 19">
       <r>   -4.7065    1.0000 </r>
       <r>   -4.2914    1.0000 </r>
       <r>   -4.2272    1.0000 </r>
       <r>   -3.1398    1.0000 </r>
       <r>   -3.1040    1.0000 </r>
       <r>   -2.3145    1.0000 </r>
       <r>    0.0958    1.0000 </r>
       <r>    0.2748    1.0000 </r>
       <r>    0.7014    1.0000 </r>
       <r>    1.1443    1.0000 </r>
       <r>    1.3112    1.0000 </r>
       <r>    2.4150    1.0000 </r>
       <r>    2.6004    1.0000 </r>
       <r>    4.1360    1.0000 </r>
       <r>    4.5138    1.0000 </r>
       <r>    4.7419    1.0000 </r>
       <r>    5.0404    1.0000 </r>
       <r>    5.1808    1.0000 </r>
       <r>    5.2700    1.0000 </r>
       <r>    5.9004    1.0000 </r>
       <r>    6.1783    1.0000 </r>
       <r>    6.3789    1.0000 </r>
       <r>    6.6379    1.0000 </r>
       <r>    6.8511    1.0000 </r>
       <r>   10.4103    0.0000 </r>
       <r>   10.6130    0.0000 </r>
       <r>   11.5684    0.0000 </r>
       <r>   12.0988    0.0000 </r>
       <r>   12.8726    0.0000 </r>
       <r>   13.0320    0.0000 </r>
       <r>   13.5091    0.0000 </r>
      </set>
      <set comment="kpoint 20">
       <r>   -4.1997    1.0000 </r>
       <r>   -3.8805    1.0000 </r>
       <r>   -3.7742    1.0000 </r>
       <r>   -3.0053    1.0000 </r>
       <r>   -2.9257    1.0000 </r>
       <r>   -2.3847    1.0000 </r>
       <r>   -0.2608    1.0000 </r>
       <r>   -0.0237    1.0000 </r>
       <r>    0.4685    1.0000 </r>
       <r>    0.5586    1.0000 </r>
       <r>    0.9888    1.0000 </r>
       <r>    1.7924    1.0000 </r>
       <r>    3.0192    1.0000 </r>
       <r>    3.9705    1.0000 </r>
       <r>    4.6456    1.0000 </r>
       <r>    4.7748    1.0000 </r>
       <r>    4.9941    1.0000 </r>
       <r>    5.0861    1.0000 </r>
       <r>    5.1298    1.0000 </r>
       <r>    5.7237    1.0000 </r>
       <r>    6.1194    1.0000 </r>
       <r>    6.2704    1.0000 </r>
       <r>    6.4349    1.0000 </r>
       <r>    6.7786    1.0000 </r>
       <r>   10.2174    0.0000 </r>
       <r>   10.4538    0.0000 </r>
       <r>   11.4443    0.0000 </r>
       <r>   12.0081    0.0000 </r>
       <r>   12.7039    0.0000 </r>
       <r>   12.8071    0.0000 </r>
       <r>   13.4661    0.0000 </r>
      </set>
      <set comment="kpoint 21">
       <r>   -3.9048    1.0000 </r>
       <r>   -3.7382    1.0000 </r>
       <r>   -3.5507    1.0000 </r>
       <r>   -3.0381    1.0000 </r>
       <r>   -2.9118    1.0000 </r>
       <r>   -2.4498    1.0000 </r>
       <r>   -0.3401    1.0000 </r>
       <r>   -0.0369    1.0000 </r>
       <r>    0.2362    1.0000 </r>
       <r>    0.2802    1.0000 </r>
       <r>    1.1343    1.0000 </r>
       <r>    1.3844    1.0000 </r>
       <r>    3.4285    1.0000 </r>
       <r>    3.6226    1.0000 </r>
       <r>    4.6132    1.0000 </r>
       <r>    4.8695    1.0000 </r>
       <r>    5.0266    1.0000 </r>
       <r>    5.0409    1.0000 </r>
       <r>    5.1628    1.0000 </r>
       <r>    5.6103    1.0000 </r>
       <r>    6.1147    1.0000 </r>
       <r>    6.2272    1.0000 </r>
       <r>    6.3300    1.0000 </r>
       <r>    6.7539    1.0000 </r>
       <r>   10.1551    0.0000 </r>
       <r>   10.4014    0.0000 </r>
       <r>   11.4022    0.0000 </r>
       <r>   11.9843    0.0000 </r>
       <r>   12.6653    0.0000 </r>
       <r>   12.6950    0.0000 </r>
       <r>   13.5834    0.0000 </r>
      </set>
      <set comment="kpoint 22">
       <r>   -6.8792    1.0000 </r>
       <r>   -6.3708    1.0000 </r>
       <r>   -6.3346    1.0000 </r>
       <r>   -4.8853    1.0000 </r>
       <r>   -4.8562    1.0000 </r>
       <r>   -3.4458    1.0000 </r>
       <r>   -0.0902    1.0000 </r>
       <r>    2.0660    1.0000 </r>
       <r>    2.1029    1.0000 </r>
       <r>    4.9553    1.0000 </r>
       <r>    5.0364    1.0000 </r>
       <r>    5.1380    1.0000 </r>
       <r>    5.1684    1.0000 </r>
       <r>    5.3962    1.0000 </r>
       <r>    6.0151    1.0000 </r>
       <r>    6.2185    1.0000 </r>
       <r>    6.3070    1.0000 </r>
       <r>    6.3885    1.0000 </r>
       <r>    6.6416    1.0000 </r>
       <r>    6.9235    1.0000 </r>
       <r>    6.9317    1.0000 </r>
       <r>    7.3367    1.0000 </r>
       <r>    7.4835    1.0000 </r>
       <r>    7.7559    1.0000 </r>
       <r>   13.4309    0.0000 </r>
       <r>   13.5043    0.0000 </r>
       <r>   13.6600    0.0000 </r>
       <r>   13.8529    0.0000 </r>
       <r>   13.9129    0.0000 </r>
       <r>   14.4228    0.0000 </r>
       <r>   14.8650    0.0000 </r>
      </set>
      <set comment="kpoint 23">
       <r>   -6.6119    1.0000 </r>
       <r>   -6.1086    1.0000 </r>
       <r>   -6.0712    1.0000 </r>
       <r>   -4.6401    1.0000 </r>
       <r>   -4.6104    1.0000 </r>
       <r>   -3.2338    1.0000 </r>
       <r>    0.1379    1.0000 </r>
       <r>    2.1536    1.0000 </r>
       <r>    2.1858    1.0000 </r>
       <r>    4.2086    1.0000 </r>
       <r>    4.3552    1.0000 </r>
       <r>    4.5251    1.0000 </r>
       <r>    4.6756    1.0000 </r>
       <r>    4.8566    1.0000 </r>
       <r>    5.4188    1.0000 </r>
       <r>    5.8630    1.0000 </r>
       <r>    6.0567    1.0000 </r>
       <r>    6.0992    1.0000 </r>
       <r>    6.3031    1.0000 </r>
       <r>    6.5963    1.0000 </r>
       <r>    6.6767    1.0000 </r>
       <r>    6.9986    1.0000 </r>
       <r>    7.2564    1.0000 </r>
       <r>    7.6284    1.0000 </r>
       <r>   12.9220    0.0000 </r>
       <r>   13.1322    0.0000 </r>
       <r>   13.3303    0.0000 </r>
       <r>   13.5816    0.0000 </r>
       <r>   13.9199    0.0000 </r>
       <r>   14.3952    0.0000 </r>
       <r>   14.9197    0.0000 </r>
      </set>
      <set comment="kpoint 24">
       <r>   -6.2730    1.0000 </r>
       <r>   -5.7771    1.0000 </r>
       <r>   -5.7379    1.0000 </r>
       <r>   -4.3343    1.0000 </r>
       <r>   -4.3039    1.0000 </r>
       <r>   -2.9789    1.0000 </r>
       <r>    0.4058    1.0000 </r>
       <r>    2.1186    1.0000 </r>
       <r>    2.1595    1.0000 </r>
       <r>    3.4388    1.0000 </r>
       <r>    3.5902    1.0000 </r>
       <r>    3.7611    1.0000 </r>
       <r>    4.2533    1.0000 </r>
       <r>    4.4240    1.0000 </r>
       <r>    4.7617    1.0000 </r>
       <r>    5.3977    1.0000 </r>
       <r>    5.6536    1.0000 </r>
       <r>    5.8226    1.0000 </r>
       <r>    6.1081    1.0000 </r>
       <r>    6.3454    1.0000 </r>
       <r>    6.3906    1.0000 </r>
       <r>    6.7572    1.0000 </r>
       <r>    7.0518    1.0000 </r>
       <r>    7.4366    1.0000 </r>
       <r>   12.3750    0.0000 </r>
       <r>   12.4831    0.0000 </r>
       <r>   12.9769    0.0000 </r>
       <r>   13.3012    0.0000 </r>
       <r>   13.8549    0.0000 </r>
       <r>   14.2239    0.0000 </r>
       <r>   14.5903    0.0000 </r>
      </set>
      <set comment="kpoint 25">
       <r>   -5.8671    1.0000 </r>
       <r>   -5.3824    1.0000 </r>
       <r>   -5.3404    1.0000 </r>
       <r>   -3.9791    1.0000 </r>
       <r>   -3.9476    1.0000 </r>
       <r>   -2.7034    1.0000 </r>
       <r>    0.6647    1.0000 </r>
       <r>    1.7438    1.0000 </r>
       <r>    1.8846    1.0000 </r>
       <r>    2.7447    1.0000 </r>
       <r>    2.9384    1.0000 </r>
       <r>    3.0299    1.0000 </r>
       <r>    3.9963    1.0000 </r>
       <r>    4.0802    1.0000 </r>
       <r>    4.1732    1.0000 </r>
       <r>    4.9917    1.0000 </r>
       <r>    5.2340    1.0000 </r>
       <r>    5.4727    1.0000 </r>
       <r>    5.8657    1.0000 </r>
       <r>    6.0427    1.0000 </r>
       <r>    6.2672    1.0000 </r>
       <r>    6.6537    1.0000 </r>
       <r>    6.8537    1.0000 </r>
       <r>    7.2005    1.0000 </r>
       <r>   11.8123    0.0000 </r>
       <r>   11.9288    0.0000 </r>
[...]
       <r>   -2.4488    1.0000 </r>
       <r>   -2.3587    1.0000 </r>
       <r>    0.5294    1.0000 </r>
       <r>    0.6198    1.0000 </r>
       <r>    0.7670    1.0000 </r>
       <r>    0.8741    1.0000 </r>
       <r>    1.2599    1.0000 </r>
       <r>    1.4415    1.0000 </r>
       <r>    2.3917    1.0000 </r>
       <r>    2.5786    1.0000 </r>
       <r>    3.0723    1.0000 </r>
       <r>    3.1341    1.0000 </r>
       <r>    3.7335    1.0000 </r>
       <r>    3.7437    1.0000 </r>
       <r>    4.2446    1.0000 </r>
       <r>    4.7435    1.0000 </r>
       <r>    5.5662    1.0000 </r>
       <r>    5.6515    1.0000 </r>
       <r>    5.8667    1.0000 </r>
       <r>    6.1095    1.0000 </r>
       <r>   11.4944    0.0000 </r>
       <r>   11.9314    0.0000 </r>
       <r>   12.1141    0.0000 </r>
       <r>   12.4204    0.0000 </r>
       <r>   13.7960    0.0000 </r>
       <r>   14.0286    0.0000 </r>
       <r>   14.6741    0.0000 </r>
      </set>
      <set comment="kpoint 95">
       <r>   -3.1785    1.0000 </r>
       <r>   -3.1049    1.0000 </r>
       <r>   -2.8440    1.0000 </r>
       <r>   -2.7313    1.0000 </r>
       <r>   -2.5653    1.0000 </r>
       <r>   -2.5324    1.0000 </r>
       <r>    0.4705    1.0000 </r>
       <r>    0.5012    1.0000 </r>
       <r>    0.8123    1.0000 </r>
       <r>    0.8303    1.0000 </r>
       <r>    1.1477    1.0000 </r>
       <r>    1.2931    1.0000 </r>
       <r>    2.2327    1.0000 </r>
       <r>    2.3485    1.0000 </r>
       <r>    2.7939    1.0000 </r>
       <r>    3.0023    1.0000 </r>
       <r>    3.3959    1.0000 </r>
       <r>    3.6222    1.0000 </r>
       <r>    4.5857    1.0000 </r>
       <r>    4.8682    1.0000 </r>
       <r>    5.3507    1.0000 </r>
       <r>    5.6238    1.0000 </r>
       <r>    5.7386    1.0000 </r>
       <r>    6.0019    1.0000 </r>
       <r>   11.4893    0.0000 </r>
       <r>   11.7901    0.0000 </r>
       <r>   12.0191    0.0000 </r>
       <r>   12.5664    0.0000 </r>
       <r>   13.5858    0.0000 </r>
       <r>   13.7952    0.0000 </r>
       <r>   14.9334    0.0000 </r>
      </set>
      <set comment="kpoint 96">
       <r>   -2.8695    1.0000 </r>
       <r>   -2.8695    1.0000 </r>
       <r>   -2.7459    1.0000 </r>
       <r>   -2.7378    1.0000 </r>
       <r>   -2.7007    1.0000 </r>
       <r>   -2.7007    1.0000 </r>
       <r>    0.5792    1.0000 </r>
       <r>    0.5792    1.0000 </r>
       <r>    0.6839    1.0000 </r>
       <r>    0.8368    1.0000 </r>
       <r>    1.1735    1.0000 </r>
       <r>    1.1735    1.0000 </r>
       <r>    2.2132    1.0000 </r>
       <r>    2.2132    1.0000 </r>
       <r>    2.6001    1.0000 </r>
       <r>    3.0222    1.0000 </r>
       <r>    3.2893    1.0000 </r>
       <r>    3.2893    1.0000 </r>
       <r>    4.9006    1.0000 </r>
       <r>    4.9006    1.0000 </r>
       <r>    5.1555    1.0000 </r>
       <r>    5.6024    1.0000 </r>
       <r>    5.8152    1.0000 </r>
       <r>    5.8152    1.0000 </r>
       <r>   11.6126    0.0000 </r>
       <r>   11.6126    0.0000 </r>
       <r>   12.0244    0.0000 </r>
       <r>   12.6524    0.0000 </r>
       <r>   13.5529    0.0000 </r>
       <r>   13.5529    0.0000 </r>
       <r>   15.1656    0.0000 </r>
      </set>
     </set>
    </set>
   </array>
  </eigenvalues>
  <separator name="orbital magnetization" >
   <v name="MAGDIPOLOUT">      0.00000000      0.00000000      0.00000000</v>
  </separator>
  <dos>
   <i name="efermi">      8.45098725 </i>
   <total>
    <array>
     <dimension dim="1">gridpoints</dimension>
     <dimension dim="2">spin</dimension>
     <field>energy</field>
     <field>total</field>
     <field>integrated</field>
     <set>
      <set comment="spin 1">
       <r>    -8.4692     0.0000     0.0000 </r>
       <r>    -8.3866     0.0000     0.0000 </r>
       <r>    -8.3041     0.0000     0.0000 </r>
       <r>    -8.2216     0.0000     0.0000 </r>
       <r>    -8.1390     0.0000     0.0000 </r>
       <r>    -8.0565     0.0000     0.0000 </r>
       <r>    -7.9740     0.0000     0.0000 </r>
       <r>    -7.8914     0.0000     0.0000 </r>
       <r>    -7.8089     0.0000     0.0000 </r>
       <r>    -7.7264     0.0000     0.0000 </r>
       <r>    -7.6438     0.0000     0.0000 </r>
       <r>    -7.5613     0.0000     0.0000 </r>
       <r>    -7.4788     0.0015     0.0001 </r>
       <r>    -7.3962     0.0203     0.0018 </r>
       <r>    -7.3137     0.1102     0.0109 </r>
       <r>    -7.2312     0.2796     0.0340 </r>
       <r>    -7.1486     0.4280     0.0693 </r>
       <r>    -7.0661     0.5592     0.1154 </r>
       <r>    -6.9836     0.6837     0.1719 </r>
       <r>    -6.9010     0.6921     0.2290 </r>
       <r>    -6.8185     0.8132     0.2961 </r>
       <r>    -6.7360     0.9269     0.3726 </r>
       <r>    -6.6534     0.9146     0.4481 </r>
       <r>    -6.5709     1.0533     0.5350 </r>
       <r>    -6.4883     1.0855     0.6246 </r>
       <r>    -6.4058     1.0006     0.7072 </r>
       <r>    -6.3233     1.2188     0.8078 </r>
       <r>    -6.2407     1.3785     0.9216 </r>
       <r>    -6.1582     1.2878     1.0279 </r>
       <r>    -6.0757     1.3282     1.1375 </r>
       <r>    -5.9931     1.3083     1.2455 </r>
       <r>    -5.9106     1.4067     1.3616 </r>
       <r>    -5.8281     1.5458     1.4891 </r>
       <r>    -5.7455     1.6287     1.6236 </r>
       <r>    -5.6630     1.7663     1.7693 </r>
       <r>    -5.5805     1.5659     1.8986 </r>
       <r>    -5.4979     1.4671     2.0197 </r>
       <r>    -5.4154     1.8640     2.1735 </r>
       <r>    -5.3329     1.9414     2.3337 </r>
       <r>    -5.2503     1.8568     2.4870 </r>
       <r>    -5.1678     1.8172     2.6370 </r>
       <r>    -5.0853     1.8218     2.7873 </r>
       <r>    -5.0027     2.2271     2.9712 </r>
       <r>    -4.9202     2.3448     3.1647 </r>
       <r>    -4.8377     2.1827     3.3448 </r>
       <r>    -4.7551     1.9088     3.5024 </r>
       <r>    -4.6726     1.8905     3.6584 </r>
       <r>    -4.5901     2.5284     3.8671 </r>
       <r>    -4.5075     2.8671     4.1037 </r>
       <r>    -4.4250     2.6247     4.3203 </r>
       <r>    -4.3425     2.4679     4.5240 </r>
       <r>    -4.2599     2.4360     4.7251 </r>
       <r>    -4.1774     2.7629     4.9531 </r>
       <r>    -4.0949     3.0373     5.2038 </r>
       <r>    -4.0123     3.3397     5.4794 </r>
       <r>    -3.9298     3.5640     5.7736 </r>
       <r>    -3.8473     3.5168     6.0638 </r>
       <r>    -3.7647     3.5703     6.3585 </r>
       <r>    -3.6822     3.8154     6.6734 </r>
       <r>    -3.5997     3.8557     6.9916 </r>
       <r>    -3.5171     3.4453     7.2760 </r>
       <r>    -3.4346     3.5340     7.5677 </r>
       <r>    -3.3520     3.7696     7.8788 </r>
       <r>    -3.2695     3.5197     8.1693 </r>
       <r>    -3.1870     3.4037     8.4502 </r>
       <r>    -3.1044     3.5218     8.7409 </r>
       <r>    -3.0219     3.5440     9.0334 </r>
       <r>    -2.9394     3.4264     9.3162 </r>
       <r>    -2.8568     3.2737     9.5864 </r>
       <r>    -2.7743     3.3865     9.8659 </r>
       <r>    -2.6918     3.7480    10.1752 </r>
       <r>    -2.6092     3.9396    10.5004 </r>
       <r>    -2.5267     4.0353    10.8334 </r>
       <r>    -2.4442     4.4691    11.2023 </r>
       <r>    -2.3616     4.2733    11.5550 </r>
       <r>    -2.2791     3.1043    11.8112 </r>
       <r>    -2.1966     1.6446    11.9469 </r>
       <r>    -2.1140     0.5414    11.9916 </r>
       <r>    -2.0315     0.0948    11.9994 </r>
       <r>    -1.9490     0.0068    12.0000 </r>
       <r>    -1.8664     0.0002    12.0000 </r>
       <r>    -1.7839     0.0000    12.0000 </r>
       <r>    -1.7014     0.0000    12.0000 </r>
       <r>    -1.6188     0.0000    12.0000 </r>
       <r>    -1.5363     0.0000    12.0000 </r>
       <r>    -1.4538     0.0000    12.0000 </r>
       <r>    -1.3712     0.0000    12.0000 </r>
       <r>    -1.2887     0.0000    12.0000 </r>
       <r>    -1.2062     0.0000    12.0000 </r>
       <r>    -1.1236     0.0000    12.0000 </r>
       <r>    -1.0411     0.0000    12.0000 </r>
       <r>    -0.9586     0.0000    12.0000 </r>
       <r>    -0.8760     0.0000    12.0000 </r>
       <r>    -0.7935     0.0000    12.0000 </r>
       <r>    -0.7110     0.0001    12.0000 </r>
       <r>    -0.6284     0.0022    12.0002 </r>
       <r>    -0.5459     0.0231    12.0021 </r>
       <r>    -0.4634     0.1113    12.0113 </r>
       <r>    -0.3808     0.3444    12.0397 </r>
       <r>    -0.2983     0.7268    12.0997 </r>
       <r>    -0.2157     1.1328    12.1932 </r>
       <r>    -0.1332     1.3888    12.3078 </r>
       <r>    -0.0507     1.8167    12.4578 </r>
       <r>     0.0319     2.1115    12.6320 </r>
       <r>     0.1144     2.1321    12.8080 </r>
       <r>     0.1969     2.2936    12.9973 </r>
       <r>     0.2795     2.5659    13.2091 </r>
       <r>     0.3620     3.0968    13.4647 </r>
       <r>     0.4445     3.9067    13.7871 </r>
       <r>     0.5271     4.4696    14.1560 </r>
       <r>     0.6096     4.5458    14.5312 </r>
       <r>     0.6921     5.2543    14.9648 </r>
       <r>     0.7747     6.1718    15.4742 </r>
       <r>     0.8572     6.4787    16.0089 </r>
       <r>     0.9397     5.9455    16.4996 </r>
       <r>     1.0223     4.8763    16.9021 </r>
       <r>     1.1048     4.5401    17.2768 </r>
       <r>     1.1873     4.3796    17.6383 </r>
       <r>     1.2699     3.7599    17.9486 </r>
       <r>     1.3524     3.6795    18.2523 </r>
       <r>     1.4349     3.9876    18.5814 </r>
       <r>     1.5175     3.3199    18.8554 </r>
       <r>     1.6000     2.1958    19.0366 </r>
       <r>     1.6825     1.9134    19.1946 </r>
       <r>     1.7651     2.3424    19.3879 </r>
       <r>     1.8476     2.5675    19.5998 </r>
       <r>     1.9301     2.3131    19.7907 </r>
       <r>     2.0127     2.3394    19.9838 </r>
       <r>     2.0952     2.7836    20.2135 </r>
       <r>     2.1777     3.1676    20.4750 </r>
       <r>     2.2603     2.5548    20.6858 </r>
       <r>     2.3428     2.1228    20.8610 </r>
       <r>     2.4253     2.4117    21.0601 </r>
       <r>     2.5079     2.7480    21.2869 </r>
       <r>     2.5904     2.5950    21.5010 </r>
       <r>     2.6729     2.5354    21.7103 </r>
       <r>     2.7555     3.2123    21.9754 </r>
       <r>     2.8380     3.8958    22.2970 </r>
       <r>     2.9206     3.9714    22.6247 </r>
       <r>     3.0031     3.9666    22.9521 </r>
       <r>     3.0856     4.1207    23.2922 </r>
       <r>     3.1682     4.4268    23.6576 </r>
       <r>     3.2507     4.2121    24.0052 </r>
       <r>     3.3332     3.9191    24.3287 </r>
       <r>     3.4158     4.2624    24.6805 </r>
       <r>     3.4983     4.4666    25.0491 </r>
       <r>     3.5808     4.3768    25.4104 </r>
       <r>     3.6634     4.2092    25.7578 </r>
       <r>     3.7459     3.8769    26.0777 </r>
       <r>     3.8284     3.9935    26.4073 </r>
       <r>     3.9110     4.6446    26.7907 </r>
       <r>     3.9935     4.8723    27.1928 </r>
       <r>     4.0760     4.4598    27.5609 </r>
       <r>     4.1586     4.4412    27.9275 </r>
       <r>     4.2411     4.8937    28.3314 </r>
       <r>     4.3236     5.2824    28.7673 </r>
       <r>     4.4062     5.0949    29.1878 </r>
       <r>     4.4887     4.5072    29.5598 </r>
       <r>     4.5712     4.9630    29.9695 </r>
       <r>     4.6538     6.0769    30.4710 </r>
       <r>     4.7363     6.2070    30.9833 </r>
       <r>     4.8188     6.1896    31.4941 </r>
       <r>     4.9014     6.4585    32.0272 </r>
       <r>     4.9839     6.0685    32.5281 </r>
       <r>     5.0664     5.5698    32.9878 </r>
       <r>     5.1490     5.8749    33.4726 </r>
       <r>     5.2315     5.7186    33.9446 </r>
       <r>     5.3140     5.7472    34.4190 </r>
       <r>     5.3966     6.5873    34.9626 </r>
       <r>     5.4791     6.7896    35.5230 </r>
       <r>     5.5616     6.5371    36.0625 </r>
       <r>     5.6442     6.5551    36.6036 </r>
       <r>     5.7267     7.1780    37.1960 </r>
       <r>     5.8092     7.4452    37.8105 </r>
       <r>     5.8918     6.6247    38.3572 </r>
       <r>     5.9743     5.7117    38.8286 </r>
       <r>     6.0569     6.1635    39.3373 </r>
       <r>     6.1394     6.8474    39.9025 </r>
       <r>     6.2219     6.6161    40.4486 </r>
       <r>     6.3045     6.9246    41.0201 </r>
       <r>     6.3870     7.3622    41.6277 </r>
       <r>     6.4695     7.3552    42.2348 </r>
       <r>     6.5521     7.1315    42.8234 </r>
       <r>     6.6346     6.9317    43.3955 </r>
       <r>     6.7171     6.5726    43.9379 </r>
       <r>     6.7997     6.1427    44.4449 </r>
       <r>     6.8822     5.5817    44.9056 </r>
       <r>     6.9647     4.9779    45.3164 </r>
       <r>     7.0473     4.4831    45.6864 </r>
       <r>     7.1298     3.8900    46.0075 </r>
       <r>     7.2123     3.5618    46.3015 </r>
       <r>     7.2949     3.4367    46.5851 </r>
       <r>     7.3774     2.9781    46.8309 </r>
       <r>     7.4599     2.6946    47.0533 </r>
       <r>     7.5425     2.6674    47.2734 </r>
       <r>     7.6250     2.3341    47.4661 </r>
       <r>     7.7075     2.0081    47.6318 </r>
       <r>     7.7901     1.7180    47.7736 </r>
       <r>     7.8726     1.3690    47.8866 </r>
       <r>     7.9551     0.8915    47.9602 </r>
       <r>     8.0377     0.3866    47.9921 </r>
       <r>     8.1202     0.0874    47.9993 </r>
       <r>     8.2027     0.0081    48.0000 </r>
       <r>     8.2853     0.0003    48.0000 </r>
       <r>     8.3678     0.0000    48.0000 </r>
       <r>     8.4503     0.0000    48.0000 </r>
       <r>     8.5329     0.0000    48.0000 </r>
       <r>     8.6154     0.0000    48.0000 </r>
       <r>     8.6979     0.0000    48.0000 </r>
       <r>     8.7805     0.0000    48.0000 </r>
       <r>     8.8630     0.0000    48.0000 </r>
       <r>     8.9455     0.0000    48.0000 </r>
       <r>     9.0281     0.0000    48.0000 </r>
       <r>     9.1106     0.0000    48.0000 </r>
       <r>     9.1932     0.0000    48.0000 </r>
       <r>     9.2757     0.0000    48.0000 </r>
       <r>     9.3582     0.0000    48.0000 </r>
       <r>     9.4408     0.0000    48.0000 </r>
       <r>     9.5233     0.0000    48.0000 </r>
       <r>     9.6058     0.0000    48.0000 </r>
       <r>     9.6884     0.0000    48.0000 </r>
       <r>     9.7709     0.0000    48.0000 </r>
       <r>     9.8534     0.0011    48.0001 </r>
       <r>     9.9360     0.0200    48.0017 </r>
       <r>    10.0185     0.1144    48.0112 </r>
       <r>    10.1010     0.3079    48.0366 </r>
       <r>    10.1836     0.6134    48.0872 </r>
       <r>    10.2661     0.8054    48.1537 </r>
       <r>    10.3486     0.7913    48.2190 </r>
       <r>    10.4312     0.9481    48.2973 </r>
       <r>    10.5137     1.0832    48.3867 </r>
       <r>    10.5962     0.9829    48.4678 </r>
       <r>    10.6788     0.8168    48.5352 </r>
       <r>    10.7613     0.9373    48.6125 </r>
       <r>    10.8438     1.3407    48.7232 </r>
       <r>    10.9264     1.5761    48.8533 </r>
       <r>    11.0089     1.1853    48.9511 </r>
       <r>    11.0914     0.8710    49.0230 </r>
       <r>    11.1740     1.3831    49.1372 </r>
       <r>    11.2565     1.9486    49.2980 </r>
       <r>    11.3390     2.1652    49.4767 </r>
       <r>    11.4216     2.3504    49.6707 </r>
       <r>    11.5041     2.5401    49.8803 </r>
       <r>    11.5866     2.3980    50.0782 </r>
       <r>    11.6692     2.0549    50.2478 </r>
       <r>    11.7517     2.3874    50.4449 </r>
       <r>    11.8342     3.0594    50.6974 </r>
       <r>    11.9168     3.3573    50.9745 </r>
       <r>    11.9993     3.2132    51.2397 </r>
       <r>    12.0818     2.9273    51.4813 </r>
       <r>    12.1644     2.8431    51.7159 </r>
       <r>    12.2469     2.5836    51.9292 </r>
       <r>    12.3294     2.3454    52.1227 </r>
       <r>    12.4120     3.2661    52.3923 </r>
       <r>    12.4945     4.5084    52.7644 </r>
       <r>    12.5771     4.7788    53.1588 </r>
       <r>    12.6596     4.3004    53.5137 </r>
       <r>    12.7421     3.5866    53.8098 </r>
       <r>    12.8247     3.1994    54.0738 </r>
       <r>    12.9072     3.5102    54.3635 </r>
       <r>    12.9897     4.3240    54.7204 </r>
       <r>    13.0723     4.5651    55.0972 </r>
       <r>    13.1548     4.2342    55.4467 </r>
       <r>    13.2373     3.8340    55.7631 </r>
       <r>    13.3199     4.0253    56.0953 </r>
       <r>    13.4024     4.8234    56.4934 </r>
       <r>    13.4849     5.0421    56.9095 </r>
       <r>    13.5675     4.4473    57.2766 </r>
       <r>    13.6500     4.2161    57.6246 </r>
       <r>    13.7325     3.9338    57.9492 </r>
       <r>    13.8151     4.0663    58.2849 </r>
       <r>    13.8976     4.5536    58.6607 </r>
       <r>    13.9801     4.5372    59.0352 </r>
       <r>    14.0627     4.4437    59.4019 </r>
       <r>    14.1452     4.1360    59.7433 </r>
       <r>    14.2277     3.7425    60.0522 </r>
       <r>    14.3103     3.7970    60.3655 </r>
       <r>    14.3928     3.6338    60.6655 </r>
       <r>    14.4753     3.2578    60.9343 </r>
       <r>    14.5579     2.8127    61.1665 </r>
       <r>    14.6404     2.4875    61.3718 </r>
       <r>    14.7229     2.0291    61.5392 </r>
       <r>    14.8055     1.7548    61.6841 </r>
       <r>    14.8880     1.6245    61.8182 </r>
       <r>    14.9705     1.3501    61.9296 </r>
       <r>    15.0531     0.6416    61.9825 </r>
       <r>    15.1356     0.1518    61.9951 </r>
       <r>    15.2181     0.0428    61.9986 </r>
       <r>    15.3007     0.0150    61.9998 </r>
       <r>    15.3832     0.0020    62.0000 </r>
       <r>    15.4657     0.0001    62.0000 </r>
       <r>    15.5483     0.0000    62.0000 </r>
       <r>    15.6308     0.0000    62.0000 </r>
       <r>    15.7134     0.0000    62.0000 </r>
       <r>    15.7959     0.0000    62.0000 </r>
       <r>    15.8784     0.0000    62.0000 </r>
       <r>    15.9610     0.0000    62.0000 </r>
       <r>    16.0435     0.0000    62.0000 </r>
       <r>    16.1260     0.0000    62.0000 </r>
       <r>    16.2086     0.0000    62.0000 </r>
       <r>    16.2911     0.0000    62.0000 </r>
      </set>
     </set>
    </array>
   </total>
  </dos>
 </calculation>
 <structure name="finalpos" >
  <crystal>
   <varray name="basis" >
    <v>       3.09475417       0.00000000       0.00000000 </v>
    <v>      -1.54737708       2.68013573       0.00000000 </v>
    <v>       0.00000000       0.00000000      15.18507131 </v>
   </varray>
   <i name="volume">    125.95046663 </i>
   <varray name="rec_basis" >
    <v>       0.32312744       0.18655772      -0.00000000 </v>
    <v>       0.00000000       0.37311543      -0.00000000 </v>
    <v>       0.00000000       0.00000000       0.06585415 </v>
   </varray>
  </crystal>
  <varray name="positions" >
   <v>       0.00000000       0.00000000       0.49971666 </v>
   <v>      -0.00000000       0.00000000       0.99971666 </v>
   <v>       0.33333334       0.66666669       0.16650253 </v>
   <v>       0.66666666       0.33333331       0.66650253 </v>
   <v>       0.33333334       0.66666669       0.83298972 </v>
   <v>       0.66666666       0.33333331       0.33298972 </v>
   <v>       0.00000000      -0.00000000       0.37437915 </v>
   <v>      -0.00000000       0.00000000       0.87437915 </v>
   <v>       0.33333334       0.66666669       0.04151481 </v>
   <v>       0.66666666       0.33333331       0.54151481 </v>
   <v>       0.33333334       0.66666669       0.70799813 </v>
   <v>       0.66666666       0.33333331       0.20799813 </v>
  </varray>
 </structure>
</modeling>
