ni3al                                   
           1
     3.076621    0.000000    0.000000
    -1.538311    2.664432    0.000000
     0.000000    0.000000   15.098084
   Si   C 
     6     6
Direct configuration=     1
   0.00000000  0.00000000  0.49972942
   0.00000000  0.00000000  0.99972942
   0.33333334  0.66666669  0.16650060
   0.66666666  0.33333331  0.66650060
   0.33333334  0.66666669  0.83298615
   0.66666666  0.33333331  0.33298615
   0.00000000  0.00000000  0.37436641
   0.00000000  0.00000000  0.87436641
   0.33333334  0.66666669  0.04152164
   0.66666666  0.33333331  0.54152164
   0.33333334  0.66666669  0.70799678
   0.66666666  0.33333331  0.20799678
ni3al                                   
           1
     3.113594    0.000000    0.000000
    -1.556797    2.696452    0.000000
     0.000000    0.000000   15.275449
   Si   C 
     6     6
Direct configuration=     2
   0.00000000  0.00000000  0.49970372
  -0.00000000  0.00000000  0.99970372
   0.33333334  0.66666669  0.16650448
   0.66666666  0.33333331  0.66650448
   0.33333334  0.66666669  0.83299334
   0.66666666  0.33333331  0.33299334
   0.00000000 -0.00000000  0.37439208
  -0.00000000  0.00000000  0.87439208
   0.33333334  0.66666669  0.04150789
   0.66666666  0.33333331  0.54150789
   0.33333334  0.66666669  0.70799949
   0.66666666  0.33333331  0.20799949
ni3al                                   
           1
     3.094754    0.000000    0.000000
    -1.547377    2.680136    0.000000
     0.000000    0.000000   15.185071
   Si   C 
     6     6
Direct configuration=     3
   0.00000000  0.00000000  0.49971666
  -0.00000000  0.00000000  0.99971666
   0.33333334  0.66666669  0.16650253
   0.66666666  0.33333331  0.66650253
   0.33333334  0.66666669  0.83298972
   0.66666666  0.33333331  0.33298972
   0.00000000 -0.00000000  0.37437915
  -0.00000000  0.00000000  0.87437915
   0.33333334  0.66666669  0.04151481
   0.66666666  0.33333331  0.54151481
   0.33333334  0.66666669  0.70799813
   0.66666666  0.33333331  0.20799813
