   2   2   0   0
  0.3600000E+03  0.8000000E-09  0.9000000E-09  0.1000000E-08  0.5000000E-15
  1.000000000000000E-004
  CAR 
 unknown system                          
      2.72633722    -36.78787938  301     -3.82643703      1.00000000
    -36.788  0.0000E+00  0.0000E+00
    -36.656  0.0000E+00  0.0000E+00
    -36.524  0.0000E+00  0.0000E+00
    -36.393  0.0000E+00  0.0000E+00
    -36.261  0.0000E+00  0.0000E+00
    -36.129  0.0000E+00  0.0000E+00
    -35.998  0.0000E+00  0.0000E+00
    -35.866  0.0000E+00  0.0000E+00
    -35.734  0.0000E+00  0.0000E+00
    -35.602  0.0000E+00  0.0000E+00
    -35.471  0.0000E+00  0.0000E+00
    -35.339  0.0000E+00  0.0000E+00
    -35.207  0.1649E-08  0.2173E-09
    -35.076  0.2696E-01  0.3550E-02
    -34.944  0.2743E+01  0.3649E+00
    -34.812  0.2665E+00  0.4000E+00
    -34.680  0.5727E-06  0.4000E+00
    -34.549  0.0000E+00  0.4000E+00
    -34.417  0.0000E+00  0.4000E+00
    -34.285  0.0000E+00  0.4000E+00
    -34.154  0.0000E+00  0.4000E+00
    -34.022  0.0000E+00  0.4000E+00
    -33.890  0.0000E+00  0.4000E+00
    -33.758  0.0000E+00  0.4000E+00
    -33.627  0.0000E+00  0.4000E+00
    -33.495  0.0000E+00  0.4000E+00
    -33.363  0.0000E+00  0.4000E+00
    -33.232  0.0000E+00  0.4000E+00
    -33.100  0.0000E+00  0.4000E+00
    -32.968  0.0000E+00  0.4000E+00
    -32.836  0.0000E+00  0.4000E+00
    -32.705  0.0000E+00  0.4000E+00
    -32.573  0.0000E+00  0.4000E+00
    -32.441  0.0000E+00  0.4000E+00
    -32.310  0.0000E+00  0.4000E+00
    -32.178  0.0000E+00  0.4000E+00
    -32.046  0.0000E+00  0.4000E+00
    -31.914  0.0000E+00  0.4000E+00
    -31.783  0.0000E+00  0.4000E+00
    -31.651  0.0000E+00  0.4000E+00
    -31.519  0.0000E+00  0.4000E+00
    -31.388  0.0000E+00  0.4000E+00
    -31.256  0.0000E+00  0.4000E+00
    -31.124  0.0000E+00  0.4000E+00
    -30.992  0.0000E+00  0.4000E+00
    -30.861  0.0000E+00  0.4000E+00
    -30.729  0.0000E+00  0.4000E+00
    -30.597  0.0000E+00  0.4000E+00
    -30.466  0.0000E+00  0.4000E+00
    -30.334  0.0000E+00  0.4000E+00
    -30.202  0.0000E+00  0.4000E+00
    -30.070  0.0000E+00  0.4000E+00
    -29.939  0.0000E+00  0.4000E+00
    -29.807  0.0000E+00  0.4000E+00
    -29.675  0.0000E+00  0.4000E+00
    -29.544  0.0000E+00  0.4000E+00
    -29.412  0.0000E+00  0.4000E+00
    -29.280  0.0000E+00  0.4000E+00
    -29.148  0.0000E+00  0.4000E+00
    -29.017  0.0000E+00  0.4000E+00
    -28.885  0.0000E+00  0.4000E+00
    -28.753  0.0000E+00  0.4000E+00
    -28.622  0.0000E+00  0.4000E+00
    -28.490  0.0000E+00  0.4000E+00
    -28.358  0.0000E+00  0.4000E+00
    -28.226  0.0000E+00  0.4000E+00
    -28.095  0.0000E+00  0.4000E+00
    -27.963  0.0000E+00  0.4000E+00
    -27.831  0.0000E+00  0.4000E+00
    -27.700  0.0000E+00  0.4000E+00
    -27.568  0.0000E+00  0.4000E+00
    -27.436  0.0000E+00  0.4000E+00
    -27.304  0.0000E+00  0.4000E+00
    -27.173  0.0000E+00  0.4000E+00
    -27.041  0.0000E+00  0.4000E+00
    -26.909  0.0000E+00  0.4000E+00
    -26.778  0.0000E+00  0.4000E+00
    -26.646  0.0000E+00  0.4000E+00
    -26.514  0.0000E+00  0.4000E+00
    -26.382  0.0000E+00  0.4000E+00
    -26.251  0.0000E+00  0.4000E+00
    -26.119  0.0000E+00  0.4000E+00
    -25.987  0.0000E+00  0.4000E+00
    -25.856  0.0000E+00  0.4000E+00
    -25.724  0.0000E+00  0.4000E+00
    -25.592  0.0000E+00  0.4000E+00
    -25.460  0.0000E+00  0.4000E+00
    -25.329  0.0000E+00  0.4000E+00
    -25.197  0.0000E+00  0.4000E+00
    -25.065  0.0000E+00  0.4000E+00
    -24.934  0.0000E+00  0.4000E+00
    -24.802  0.0000E+00  0.4000E+00
    -24.670  0.0000E+00  0.4000E+00
    -24.538  0.0000E+00  0.4000E+00
    -24.407  0.0000E+00  0.4000E+00
    -24.275  0.0000E+00  0.4000E+00
    -24.143  0.0000E+00  0.4000E+00
    -24.012  0.0000E+00  0.4000E+00
    -23.880  0.0000E+00  0.4000E+00
    -23.748  0.0000E+00  0.4000E+00
    -23.616  0.0000E+00  0.4000E+00
    -23.485  0.0000E+00  0.4000E+00
    -23.353  0.0000E+00  0.4000E+00
    -23.221  0.0000E+00  0.4000E+00
    -23.090  0.0000E+00  0.4000E+00
    -22.958  0.0000E+00  0.4000E+00
    -22.826  0.0000E+00  0.4000E+00
    -22.694  0.9061E-09  0.4000E+00
    -22.563  0.2076E-01  0.4027E+00
    -22.431  0.2701E+01  0.7584E+00
    -22.299  0.3156E+00  0.8000E+00
    -22.168  0.9408E-06  0.8000E+00
    -22.036  0.0000E+00  0.8000E+00
    -21.904  0.0000E+00  0.8000E+00
    -21.772  0.0000E+00  0.8000E+00
    -21.641  0.0000E+00  0.8000E+00
    -21.509  0.0000E+00  0.8000E+00
    -21.377  0.0000E+00  0.8000E+00
    -21.246  0.0000E+00  0.8000E+00
    -21.114  0.0000E+00  0.8000E+00
    -20.982  0.0000E+00  0.8000E+00
    -20.850  0.0000E+00  0.8000E+00
    -20.719  0.0000E+00  0.8000E+00
    -20.587  0.0000E+00  0.8000E+00
    -20.455  0.0000E+00  0.8000E+00
    -20.324  0.0000E+00  0.8000E+00
    -20.192  0.0000E+00  0.8000E+00
    -20.060  0.0000E+00  0.8000E+00
    -19.928  0.0000E+00  0.8000E+00
    -19.797  0.0000E+00  0.8000E+00
    -19.665  0.0000E+00  0.8000E+00
    -19.533  0.0000E+00  0.8000E+00
    -19.402  0.0000E+00  0.8000E+00
    -19.270  0.0000E+00  0.8000E+00
    -19.138  0.0000E+00  0.8000E+00
    -19.006  0.0000E+00  0.8000E+00
    -18.875  0.0000E+00  0.8000E+00
    -18.743  0.3395E-05  0.8000E+00
    -18.611  0.7669E+00  0.9010E+00
    -18.480  0.5277E+01  0.1596E+01
    -18.348  0.3510E+00  0.1642E+01
    -18.216  0.2696E+01  0.1997E+01
    -18.084  0.2018E-01  0.2000E+01
    -17.953  0.8498E-09  0.2000E+01
    -17.821  0.0000E+00  0.2000E+01
    -17.689  0.0000E+00  0.2000E+01
    -17.558  0.0000E+00  0.2000E+01
    -17.426  0.0000E+00  0.2000E+01
    -17.294  0.0000E+00  0.2000E+01
    -17.162  0.0000E+00  0.2000E+01
    -17.031  0.0000E+00  0.2000E+01
    -16.899  0.0000E+00  0.2000E+01
    -16.767  0.0000E+00  0.2000E+01
    -16.636  0.0000E+00  0.2000E+01
    -16.504  0.0000E+00  0.2000E+01
    -16.372  0.0000E+00  0.2000E+01
    -16.240  0.0000E+00  0.2000E+01
    -16.109  0.0000E+00  0.2000E+01
    -15.977  0.0000E+00  0.2000E+01
    -15.845  0.0000E+00  0.2000E+01
    -15.714  0.0000E+00  0.2000E+01
    -15.582  0.0000E+00  0.2000E+01
    -15.450  0.0000E+00  0.2000E+01
    -15.318  0.0000E+00  0.2000E+01
    -15.187  0.0000E+00  0.2000E+01
    -15.055  0.0000E+00  0.2000E+01
    -14.923  0.0000E+00  0.2000E+01
    -14.792  0.0000E+00  0.2000E+01
    -14.660  0.0000E+00  0.2000E+01
    -14.528  0.0000E+00  0.2000E+01
    -14.396  0.0000E+00  0.2000E+01
    -14.265  0.0000E+00  0.2000E+01
    -14.133  0.0000E+00  0.2000E+01
    -14.001  0.0000E+00  0.2000E+01
    -13.870  0.0000E+00  0.2000E+01
    -13.738  0.0000E+00  0.2000E+01
    -13.606  0.0000E+00  0.2000E+01
    -13.474  0.0000E+00  0.2000E+01
    -13.343  0.0000E+00  0.2000E+01
    -13.211  0.0000E+00  0.2000E+01
    -13.079  0.0000E+00  0.2000E+01
    -12.948  0.0000E+00  0.2000E+01
    -12.816  0.0000E+00  0.2000E+01
    -12.684  0.0000E+00  0.2000E+01
    -12.552  0.0000E+00  0.2000E+01
    -12.421  0.0000E+00  0.2000E+01
    -12.289  0.0000E+00  0.2000E+01
    -12.157  0.0000E+00  0.2000E+01
    -12.026  0.0000E+00  0.2000E+01
    -11.894  0.0000E+00  0.2000E+01
    -11.762  0.0000E+00  0.2000E+01
    -11.630  0.0000E+00  0.2000E+01
    -11.499  0.0000E+00  0.2000E+01
    -11.367  0.0000E+00  0.2000E+01
    -11.235  0.0000E+00  0.2000E+01
    -11.104  0.0000E+00  0.2000E+01
    -10.972  0.0000E+00  0.2000E+01
    -10.840  0.0000E+00  0.2000E+01
    -10.708  0.0000E+00  0.2000E+01
    -10.577  0.0000E+00  0.2000E+01
    -10.445  0.0000E+00  0.2000E+01
    -10.313  0.0000E+00  0.2000E+01
    -10.182  0.0000E+00  0.2000E+01
    -10.050  0.0000E+00  0.2000E+01
     -9.918  0.0000E+00  0.2000E+01
     -9.786  0.0000E+00  0.2000E+01
     -9.655  0.0000E+00  0.2000E+01
     -9.523  0.0000E+00  0.2000E+01
     -9.391  0.0000E+00  0.2000E+01
     -9.260  0.0000E+00  0.2000E+01
     -9.128  0.0000E+00  0.2000E+01
     -8.996  0.0000E+00  0.2000E+01
     -8.864  0.0000E+00  0.2000E+01
     -8.733  0.0000E+00  0.2000E+01
     -8.601  0.0000E+00  0.2000E+01
     -8.469  0.0000E+00  0.2000E+01
     -8.338  0.0000E+00  0.2000E+01
     -8.206  0.0000E+00  0.2000E+01
     -8.074  0.0000E+00  0.2000E+01
     -7.943  0.0000E+00  0.2000E+01
     -7.811  0.0000E+00  0.2000E+01
     -7.679  0.0000E+00  0.2000E+01
     -7.547  0.0000E+00  0.2000E+01
     -7.416  0.0000E+00  0.2000E+01
     -7.284  0.0000E+00  0.2000E+01
     -7.152  0.0000E+00  0.2000E+01
     -7.021  0.0000E+00  0.2000E+01
     -6.889  0.0000E+00  0.2000E+01
     -6.757  0.0000E+00  0.2000E+01
     -6.625  0.0000E+00  0.2000E+01
     -6.494  0.0000E+00  0.2000E+01
     -6.362  0.0000E+00  0.2000E+01
     -6.230  0.0000E+00  0.2000E+01
     -6.099  0.0000E+00  0.2000E+01
     -5.967  0.0000E+00  0.2000E+01
     -5.835  0.0000E+00  0.2000E+01
     -5.703  0.0000E+00  0.2000E+01
     -5.572  0.0000E+00  0.2000E+01
     -5.440  0.0000E+00  0.2000E+01
     -5.308  0.0000E+00  0.2000E+01
     -5.177  0.0000E+00  0.2000E+01
     -5.045  0.0000E+00  0.2000E+01
     -4.913  0.0000E+00  0.2000E+01
     -4.781  0.0000E+00  0.2000E+01
     -4.650  0.0000E+00  0.2000E+01
     -4.518  0.7700E-10  0.2000E+01
     -4.386  0.6777E-02  0.2001E+01
     -4.255  0.2456E+01  0.2324E+01
     -4.123  0.1561E+01  0.2530E+01
     -3.991  0.5068E+01  0.3198E+01
     -3.859  0.1861E-01  0.3200E+01
     -3.728  0.3057E-09  0.3200E+01
     -3.596  0.0000E+00  0.3200E+01
     -3.464  0.0000E+00  0.3200E+01
     -3.333  0.0000E+00  0.3200E+01
     -3.201  0.0000E+00  0.3200E+01
     -3.069  0.0000E+00  0.3200E+01
     -2.937  0.0000E+00  0.3200E+01
     -2.806  0.0000E+00  0.3200E+01
     -2.674  0.0000E+00  0.3200E+01
     -2.542  0.0000E+00  0.3200E+01
     -2.411  0.0000E+00  0.3200E+01
     -2.279  0.0000E+00  0.3200E+01
     -2.147  0.0000E+00  0.3200E+01
     -2.015  0.0000E+00  0.3200E+01
     -1.884  0.0000E+00  0.3200E+01
     -1.752  0.3938E-10  0.3200E+01
     -1.620  0.6673E-03  0.3200E+01
     -1.489  0.2893E+00  0.3238E+01
     -1.357  0.1512E+01  0.3437E+01
     -1.225  0.1086E+01  0.3580E+01
     -1.093  0.1491E+00  0.3600E+01
     -0.962  0.4369E-04  0.3600E+01
     -0.830  0.1024E-12  0.3600E+01
     -0.698  0.0000E+00  0.3600E+01
     -0.567  0.0000E+00  0.3600E+01
     -0.435  0.4321E-12  0.3600E+01
     -0.303  0.6784E-04  0.3600E+01
     -0.171  0.9981E-01  0.3613E+01
     -0.040  0.7262E+00  0.3709E+01
      0.092  0.8914E+00  0.3826E+01
      0.224  0.1653E+01  0.4044E+01
      0.355  0.1869E+01  0.4290E+01
      0.487  0.9993E+00  0.4422E+01
      0.619  0.1005E+01  0.4554E+01
      0.751  0.9065E+00  0.4674E+01
      0.882  0.5726E+00  0.4749E+01
      1.014  0.3863E+00  0.4800E+01
      1.146  0.7174E-03  0.4800E+01
      1.277  0.2730E-10  0.4800E+01
      1.409  0.0000E+00  0.4800E+01
      1.541  0.0000E+00  0.4800E+01
      1.673  0.0000E+00  0.4800E+01
      1.804  0.0000E+00  0.4800E+01
      1.936  0.0000E+00  0.4800E+01
      2.068  0.0000E+00  0.4800E+01
      2.199  0.0000E+00  0.4800E+01
      2.331  0.0000E+00  0.4800E+01
      2.463  0.0000E+00  0.4800E+01
      2.595  0.0000E+00  0.4800E+01
      2.726  0.0000E+00  0.4800E+01
