    2    2    5    1
  0.3600000E+03  0.8000000E-09  0.9000000E-09  0.1000000E-08  0.5000000E-15
  1.000000000000000E-004
  CAR 
 unknown system                          
     16     36     12
 
  0.0000000E+00  0.0000000E+00  0.0000000E+00  0.1562500E-01
      1        -34.991778   1.000000
      2        -22.475579   1.000000
      3        -18.571002   1.000000
      4        -18.570758   1.000000
      5        -18.303732   1.000000
      6         -4.285402   1.000000
      7         -4.087915   1.000000
      8         -4.087010   1.000000
      9         -1.538653   0.000000
     10          0.403667   0.000000
     11          0.596082   0.000000
     12          0.685172   0.000000
 
  0.2500000E+00  0.0000000E+00  0.0000000E+00  0.3125000E-01
      1        -34.991778   1.000000
      2        -22.475572   1.000000
      3        -18.571008   1.000000
      4        -18.570758   1.000000
      5        -18.303734   1.000000
      6         -4.285500   1.000000
      7         -4.088120   1.000000
      8         -4.087619   1.000000
      9         -1.447766   0.000000
     10          0.161786   0.000000
     11          0.495195   0.000000
     12          0.725214   0.000000
 
  0.5000000E+00  0.0000000E+00  0.0000000E+00  0.1562500E-01
      1        -34.991778   1.000000
      2        -22.475615   1.000000
      3        -18.571014   1.000000
      4        -18.570761   1.000000
      5        -18.303739   1.000000
      6         -4.285608   1.000000
      7         -4.088993   1.000000
      8         -4.087555   1.000000
      9         -1.326951   0.000000
     10         -0.197219   0.000000
     11          0.618395   0.000000
     12          0.825168   0.000000
 
  0.0000000E+00  0.2500000E+00  0.0000000E+00  0.3125000E-01
      1        -34.991778   1.000000
      2        -22.475576   1.000000
      3        -18.571003   1.000000
      4        -18.570759   1.000000
      5        -18.303733   1.000000
      6         -4.285536   1.000000
      7         -4.088078   1.000000
      8         -4.087069   1.000000
      9         -1.491531   0.000000
     10          0.102634   0.000000
     11          0.501549   0.000000
     12          0.894065   0.000000
 
  0.2500000E+00  0.2500000E+00  0.0000000E+00  0.3125000E-01
      1        -34.991778   1.000000
      2        -22.475603   1.000000
      3        -18.571010   1.000000
      4        -18.570760   1.000000
      5        -18.303737   1.000000
      6         -4.285638   1.000000
      7         -4.088081   1.000000
      8         -4.087847   1.000000
      9         -1.403253   0.000000
     10          0.197568   0.000000
     11          0.237757   0.000000
     12          0.617195   0.000000
 
  0.2500000E+00 -0.2500000E+00  0.0000000E+00  0.3125000E-01
      1        -34.991778   1.000000
      2        -22.475603   1.000000
      3        -18.571011   1.000000
      4        -18.570760   1.000000
      5        -18.303737   1.000000
      6         -4.285593   1.000000
      7         -4.088084   1.000000
      8         -4.087881   1.000000
      9         -1.402485   0.000000
     10          0.144562   0.000000
     11          0.379302   0.000000
     12          0.623928   0.000000
 
  0.5000000E+00  0.2500000E+00  0.0000000E+00  0.3125000E-01
      1        -34.991778   1.000000
      2        -22.475580   1.000000
      3        -18.571015   1.000000
      4        -18.570761   1.000000
      5        -18.303739   1.000000
      6         -4.285701   1.000000
      7         -4.088965   1.000000
      8         -4.087766   1.000000
      9         -1.286141   0.000000
     10         -0.132168   0.000000
     11          0.383802   0.000000
     12          0.732221   0.000000
 
  0.0000000E+00  0.5000000E+00  0.0000000E+00  0.1562500E-01
      1        -34.991778   1.000000
      2        -22.475569   1.000000
      3        -18.571002   1.000000
      4        -18.570757   1.000000
      5        -18.303732   1.000000
      6         -4.285671   1.000000
      7         -4.088275   1.000000
      8         -4.087096   1.000000
      9         -1.436994   0.000000
     10         -0.136072   0.000000
     11          0.560114   0.000000
     12          0.930236   0.000000
 
  0.2500000E+00  0.5000000E+00  0.0000000E+00  0.3125000E-01
      1        -34.991777   1.000000
      2        -22.475604   1.000000
      3        -18.571009   1.000000
      4        -18.570761   1.000000
      5        -18.303737   1.000000
      6         -4.285730   1.000000
      7         -4.088122   1.000000
      8         -4.088026   1.000000
      9         -1.351131   0.000000
     10         -0.024828   0.000000
     11          0.302614   0.000000
     12          0.668740   0.000000
 
  0.5000000E+00  0.5000000E+00  0.0000000E+00  0.1562500E-01
      1        -34.991778   1.000000
      2        -22.475634   1.000000
      3        -18.571016   1.000000
      4        -18.570764   1.000000
      5        -18.303741   1.000000
      6         -4.285797   1.000000
      7         -4.088951   1.000000
      8         -4.087968   1.000000
      9         -1.239506   0.000000
     10         -0.045426   0.000000
     11          0.172304   0.000000
     12          0.695777   0.000000
 
  0.0000000E+00  0.0000000E+00  0.2500000E+00  0.3125000E-01
      1        -34.991779   1.000000
      2        -22.475604   1.000000
      3        -18.571007   1.000000
      4        -18.570760   1.000000
      5        -18.303737   1.000000
      6         -4.285496   1.000000
      7         -4.087977   1.000000
      8         -4.087005   1.000000
      9         -1.515647   0.000000
     10          0.115882   0.000000
     11          0.600936   0.000000
     12          0.838801   0.000000
 
  0.2500000E+00  0.0000000E+00  0.2500000E+00  0.3125000E-01
      1        -34.991778   1.000000
      2        -22.475586   1.000000
      3        -18.571009   1.000000
      4        -18.570759   1.000000
      5        -18.303736   1.000000
      6         -4.285596   1.000000
      7         -4.088152   1.000000
      8         -4.087632   1.000000
      9         -1.426420   0.000000
     10          0.200048   0.000000
     11          0.232505   0.000000
     12          0.704443   0.000000
 
  0.2500000E+00  0.0000000E+00 -0.2500000E+00  0.3125000E-01
      1        -34.991778   1.000000
      2        -22.475587   1.000000
      3        -18.571010   1.000000
      4        -18.570760   1.000000
      5        -18.303736   1.000000
      6         -4.285569   1.000000
      7         -4.088172   1.000000
      8         -4.087630   1.000000
      9         -1.426094   0.000000
     10          0.140044   0.000000
     11          0.312236   0.000000
     12          0.708477   0.000000
 
  0.5000000E+00  0.0000000E+00  0.2500000E+00  0.3125000E-01
      1        -34.991779   1.000000
      2        -22.475561   1.000000
      3        -18.571012   1.000000
      4        -18.570759   1.000000
      5        -18.303735   1.000000
      6         -4.285675   1.000000
      7         -4.089001   1.000000
      8         -4.087590   1.000000
      9         -1.308216   0.000000
     10         -0.160010   0.000000
     11          0.419790   0.000000
     12          0.843677   0.000000
 
  0.0000000E+00  0.2500000E+00  0.2500000E+00  0.3125000E-01
      1        -34.991778   1.000000
      2        -22.475573   1.000000
      3        -18.571005   1.000000
      4        -18.570757   1.000000
      5        -18.303736   1.000000
      6         -4.285630   1.000000
      7         -4.088125   1.000000
      8         -4.087073   1.000000
      9         -1.470273   0.000000
     10          0.148535   0.000000
     11          0.202782   0.000000
     12          0.880457   0.000000
 
  0.0000000E+00  0.2500000E+00 -0.2500000E+00  0.3125000E-01
      1        -34.991778   1.000000
      2        -22.475574   1.000000
      3        -18.571004   1.000000
      4        -18.570761   1.000000
      5        -18.303732   1.000000
      6         -4.285612   1.000000
      7         -4.088134   1.000000
      8         -4.087072   1.000000
      9         -1.470158   0.000000
     10          0.081816   0.000000
     11          0.278754   0.000000
     12          0.887393   0.000000
 
  0.2500000E+00  0.2500000E+00  0.2500000E+00  0.3125000E-01
      1        -34.991778   1.000000
      2        -22.475585   1.000000
      3        -18.571010   1.000000
      4        -18.570758   1.000000
      5        -18.303736   1.000000
      6         -4.285731   1.000000
      7         -4.088118   1.000000
      8         -4.087846   1.000000
      9         -1.383517   0.000000
     10          0.242680   0.000000
     11          0.264018   0.000000
     12          0.328526   0.000000
 
  0.2500000E+00 -0.2500000E+00 -0.2500000E+00  0.3125000E-01
      1        -34.991778   1.000000
      2        -22.475585   1.000000
      3        -18.571009   1.000000
      4        -18.570759   1.000000
      5        -18.303736   1.000000
      6         -4.285664   1.000000
      7         -4.088136   1.000000
      8         -4.087882   1.000000
      9         -1.382097   0.000000
     10          0.172467   0.000000
     11          0.262628   0.000000
     12          0.669406   0.000000
 
 -0.2500000E+00  0.2500000E+00 -0.2500000E+00  0.3125000E-01
      1        -34.991778   1.000000
      2        -22.475585   1.000000
      3        -18.571008   1.000000
      4        -18.570760   1.000000
      5        -18.303736   1.000000
      6         -4.285673   1.000000
      7         -4.088120   1.000000
      8         -4.087889   1.000000
      9         -1.382310   0.000000
     10          0.157355   0.000000
     11          0.270499   0.000000
     12          0.502120   0.000000
 
 -0.2500000E+00 -0.2500000E+00  0.2500000E+00  0.3125000E-01
      1        -34.991778   1.000000
      2        -22.475586   1.000000
      3        -18.571010   1.000000
      4        -18.570760   1.000000
      5        -18.303733   1.000000
      6         -4.285691   1.000000
      7         -4.088141   1.000000
      8         -4.087848   1.000000
      9         -1.382813   0.000000
     10          0.162912   0.000000
     11          0.266536   0.000000
     12          0.426509   0.000000
 
  0.5000000E+00  0.2500000E+00  0.2500000E+00  0.3125000E-01
      1        -34.991778   1.000000
      2        -22.475566   1.000000
      3        -18.571014   1.000000
      4        -18.570759   1.000000
      5        -18.303737   1.000000
      6         -4.285770   1.000000
      7         -4.088971   1.000000
      8         -4.087798   1.000000
      9         -1.268762   0.000000
     10         -0.098237   0.000000
     11          0.404122   0.000000
     12          0.519240   0.000000
 
  0.5000000E+00  0.2500000E+00 -0.2500000E+00  0.3125000E-01
      1        -34.991778   1.000000
      2        -22.475566   1.000000
      3        -18.571014   1.000000
      4        -18.570759   1.000000
      5        -18.303737   1.000000
      6         -4.285758   1.000000
      7         -4.088971   1.000000
      8         -4.087806   1.000000
      9         -1.268496   0.000000
     10         -0.097305   0.000000
     11          0.363573   0.000000
     12          0.561095   0.000000
 
  0.0000000E+00  0.5000000E+00  0.2500000E+00  0.3125000E-01
      1        -34.991778   1.000000
      2        -22.475598   1.000000
      3        -18.571006   1.000000
      4        -18.570761   1.000000
      5        -18.303736   1.000000
      6         -4.285748   1.000000
      7         -4.088314   1.000000
      8         -4.087106   1.000000
      9         -1.417466   0.000000
     10         -0.093839   0.000000
     11          0.311500   0.000000
     12          0.908235   0.000000
 
  0.2500000E+00  0.5000000E+00  0.2500000E+00  0.3125000E-01
      1        -34.991778   1.000000
      2        -22.475588   1.000000
      3        -18.571010   1.000000
      4        -18.570759   1.000000
      5        -18.303738   1.000000
      6         -4.285809   1.000000
      7         -4.088161   1.000000
      8         -4.088026   1.000000
      9         -1.333036   0.000000
     10          0.012935   0.000000
     11          0.331063   0.000000
     12          0.430465   0.000000
 
  0.2500000E+00  0.5000000E+00 -0.2500000E+00  0.3125000E-01
      1        -34.991778   1.000000
      2        -22.475588   1.000000
      3        -18.571010   1.000000
      4        -18.570761   1.000000
      5        -18.303736   1.000000
      6         -4.285786   1.000000
      7         -4.088167   1.000000
      8         -4.088036   1.000000
      9         -1.332521   0.000000
     10          0.015276   0.000000
     11          0.289205   0.000000
     12          0.556916   0.000000
 
  0.5000000E+00  0.5000000E+00  0.2500000E+00  0.3125000E-01
      1        -34.991778   1.000000
      2        -22.475602   1.000000
      3        -18.571018   1.000000
      4        -18.570762   1.000000
      5        -18.303741   1.000000
      6         -4.285853   1.000000
      7         -4.088952   1.000000
      8         -4.088004   1.000000
      9         -1.223718   0.000000
     10         -0.015024   0.000000
     11          0.202620   0.000000
     12          0.577060   0.000000
 
  0.0000000E+00  0.0000000E+00  0.5000000E+00  0.1562500E-01
      1        -34.991778   1.000000
      2        -22.475601   1.000000
      3        -18.571007   1.000000
      4        -18.570761   1.000000
      5        -18.303738   1.000000
      6         -4.285591   1.000000
      7         -4.088041   1.000000
      8         -4.087000   1.000000
      9         -1.490904   0.000000
     10         -0.055597   0.000000
     11          0.622608   0.000000
     12          0.866959   0.000000
 
  0.2500000E+00  0.0000000E+00  0.5000000E+00  0.3125000E-01
      1        -34.991778   1.000000
      2        -22.475583   1.000000
      3        -18.571009   1.000000
      4        -18.570759   1.000000
      5        -18.303736   1.000000
      6         -4.285665   1.000000
      7         -4.088206   1.000000
      8         -4.087638   1.000000
      9         -1.403276   0.000000
     10          0.056373   0.000000
     11          0.251367   0.000000
     12          0.722273   0.000000
 
  0.5000000E+00  0.0000000E+00  0.5000000E+00  0.1562500E-01
      1        -34.991777   1.000000
      2        -22.475542   1.000000
      3        -18.571012   1.000000
      4        -18.570758   1.000000
      5        -18.303734   1.000000
      6         -4.285744   1.000000
      7         -4.089011   1.000000
      8         -4.087624   1.000000
      9         -1.288537   0.000000
     10         -0.115680   0.000000
     11          0.273608   0.000000
     12          0.752578   0.000000
 
  0.0000000E+00  0.2500000E+00  0.5000000E+00  0.3125000E-01
      1        -34.991778   1.000000
      2        -22.475563   1.000000
      3        -18.571003   1.000000
      4        -18.570758   1.000000
      5        -18.303734   1.000000
      6         -4.285709   1.000000
      7         -4.088184   1.000000
      8         -4.087076   1.000000
      9         -1.447069   0.000000
     10          0.014386   0.000000
     11          0.220356   0.000000
     12          0.906157   0.000000
 
  0.2500000E+00  0.2500000E+00  0.5000000E+00  0.3125000E-01
      1        -34.991778   1.000000
      2        -22.475539   1.000000
      3        -18.571007   1.000000
      4        -18.570756   1.000000
      5        -18.303731   1.000000
      6         -4.285784   1.000000
      7         -4.088181   1.000000
      8         -4.087842   1.000000
      9         -1.361737   0.000000
     10          0.116740   0.000000
     11          0.298019   0.000000
     12          0.340774   0.000000
 
  0.2500000E+00 -0.2500000E+00  0.5000000E+00  0.3125000E-01
      1        -34.991778   1.000000
      2        -22.475538   1.000000
      3        -18.571003   1.000000
      4        -18.570757   1.000000
      5        -18.303733   1.000000
      6         -4.285743   1.000000
      7         -4.088177   1.000000
      8         -4.087883   1.000000
      9         -1.360717   0.000000
     10          0.126572   0.000000
     11          0.229805   0.000000
     12          0.579507   0.000000
 
  0.5000000E+00  0.2500000E+00  0.5000000E+00  0.3125000E-01
      1        -34.991778   1.000000
      2        -22.475586   1.000000
      3        -18.571013   1.000000
      4        -18.570758   1.000000
      5        -18.303736   1.000000
      6         -4.285827   1.000000
      7         -4.088980   1.000000
      8         -4.087837   1.000000
      9         -1.250178   0.000000
     10         -0.056601   0.000000
     11          0.317228   0.000000
     12          0.492205   0.000000
 
  0.0000000E+00  0.5000000E+00  0.5000000E+00  0.1562500E-01
      1        -34.991778   1.000000
      2        -22.475542   1.000000
      3        -18.571005   1.000000
      4        -18.570758   1.000000
      5        -18.303734   1.000000
      6         -4.285825   1.000000
      7         -4.088356   1.000000
      8         -4.087115   1.000000
      9         -1.396754   0.000000
     10         -0.044298   0.000000
     11          0.158647   0.000000
     12          0.767586   0.000000
 
  0.2500000E+00  0.5000000E+00  0.5000000E+00  0.3125000E-01
      1        -34.991778   1.000000
      2        -22.475566   1.000000
      3        -18.571009   1.000000
      4        -18.570758   1.000000
      5        -18.303735   1.000000
      6         -4.285865   1.000000
      7         -4.088214   1.000000
      8         -4.088026   1.000000
      9         -1.313424   0.000000
     10          0.058869   0.000000
     11          0.247162   0.000000
     12          0.470043   0.000000
 
  0.5000000E+00  0.5000000E+00  0.5000000E+00  0.1562500E-01
      1        -34.991779   1.000000
      2        -22.475564   1.000000
      3        -18.571013   1.000000
      4        -18.570757   1.000000
      5        -18.303736   1.000000
      6         -4.285910   1.000000
      7         -4.088956   1.000000
      8         -4.088039   1.000000
      9         -1.206840   0.000000
     10          0.019399   0.000000
     11          0.233827   0.000000
     12          0.451741   0.000000
