 vasp.6.3.2 27Jun22 (build Mar 15 2023 15:45:48) complex                        
  
 executed on             LinuxIFC date 2024.07.18  10:47:51
 running on    4 total cores
 distrk:  each k-point on    1 cores,    4 groups
 distr:  one band on NCORE=   1 cores,    1 groups


--------------------------------------------------------------------------------------------------------


 INCAR:
   NCORE = 10
   KPAR = 6
   IBRION = 2
   NSW = 5
   ENCUT = 520
   ISMEAR = 0
   SIGMA = 0.05
   LREAL = .FALSE.
   ALGO = Fast
   EDIFF = 1E-6
   EDIFFG = -0.01
   KSPACING = 0.2
   ISIF = 2
   ICHARG = 1
   LWAVE = .FALSE.
   LCHARG = .FALSE.
   PREC = Accurate

 POTCAR:   PAW_PBE K_sv 06Sep2000                 
 POTCAR:   PAW_PBE F 08Apr2002                    
 POTCAR:   PAW_PBE K_sv 06Sep2000                 
   VRHFIN =K:  3s3p4s                                                                               
   LEXCH  = PE                                                                                      
   EATOM  =   774.7423 eV,   56.9420 Ry                                                             
                                                                                                    
   TITEL  = PAW_PBE K_sv 06Sep2000                                                                  
   LULTRA =        F    use ultrasoft PP ?                                                          
   IUNSCR =        1    unscreen: 0-lin 1-nonlin 2-no                                               
   RPACOR =    2.200    partial core radius                                                         
   POMASS =   39.098; ZVAL   =    9.000    mass and valenz                                          
   RCORE  =    2.300    outmost cutoff radius                                                       
   RWIGS  =    3.000; RWIGS  =    1.588    wigner-seitz radius (au A)                               
   ENMAX  =  259.216; ENMIN  =  194.412 eV                                                          
   RCLOC  =    2.005    cutoff for local pot                                                        
   LCOR   =        T    correct aug charges                                                         
   LPAW   =        T    paw PP                                                                      
   EAUG   =  427.853                                                                                
   DEXC   =     .000                                                                                
   RMAX   =    2.864    core radius for proj-oper                                                   
   RAUG   =    1.300    factor for augmentation sphere                                              
   RDEP   =    2.372    radius for radial grids                                                     
   QCUT   =   -4.365; QGAM   =    8.730    optimization parameters                                  
                                                                                                    
   Description                                                                                      
     l     E      TYP  RCUT    TYP  RCUT                                                            
     0   .000     23  2.300                                                                         
     0   .000     23  2.300                                                                         
     1   .000     23  2.300                                                                         
     1 -1.500     23  2.300                                                                         
     2   .000     23  2.300                                                                         
  local pseudopotential read in
  partial core-charges read in
  atomic valenz-charges read in
  non local Contribution for L=           0  read in
    real space projection operators read in
  non local Contribution for L=           0  read in
    real space projection operators read in
  non local Contribution for L=           1  read in
    real space projection operators read in
  non local Contribution for L=           1  read in
    real space projection operators read in
  non local Contribution for L=           2  read in
    real space projection operators read in
    PAW grid and wavefunctions read in
 
   number of l-projection  operators is LMAX  =           5
   number of lm-projection operators is LMMAX =          13
 
 POTCAR:   PAW_PBE F 08Apr2002                    
   VRHFIN =F: s2p5                                                                                  
   LEXCH  = PE                                                                                      
   EATOM  =   659.4942 eV,   48.4715 Ry                                                             
                                                                                                    
   TITEL  = PAW_PBE F 08Apr2002                                                                     
   LULTRA =        F    use ultrasoft PP ?                                                          
   IUNSCR =        0    unscreen: 0-lin 1-nonlin 2-no                                               
   RPACOR =     .000    partial core radius                                                         
   POMASS =   18.998; ZVAL   =    7.000    mass and valenz                                          
   RCORE  =    1.520    outmost cutoff radius                                                       
   RWIGS  =    1.500; RWIGS  =     .794    wigner-seitz radius (au A)                               
   ENMAX  =  400.000; ENMIN  =  300.000 eV                                                          
   ICORE  =        2    local potential                                                             
   LCOR   =        T    correct aug charges                                                         
   LPAW   =        T    paw PP                                                                      
   EAUG   =  613.614                                                                                
   DEXC   =     .000                                                                                
   RMAX   =    2.254    core radius for proj-oper                                                   
   RAUG   =    1.300    factor for augmentation sphere                                              
   RDEP   =    1.539    radius for radial grids                                                     
   QCUT   =   -5.545; QGAM   =   11.091    optimization parameters                                  
                                                                                                    
   Description                                                                                      
     l     E      TYP  RCUT    TYP  RCUT                                                            
     0   .000     23  1.200                                                                         
     0  -.700     23  1.200                                                                         
     1   .000     23  1.520                                                                         
     1   .100     23  1.520                                                                         
     2   .000      7  1.500                                                                         
  local pseudopotential read in
  atomic valenz-charges read in
  non local Contribution for L=           0  read in
    real space projection operators read in
  non local Contribution for L=           0  read in
    real space projection operators read in
  non local Contribution for L=           1  read in
    real space projection operators read in
  non local Contribution for L=           1  read in
    real space projection operators read in
    PAW grid and wavefunctions read in
 
   number of l-projection  operators is LMAX  =           4
   number of lm-projection operators is LMMAX =           8
 
 PAW_PBE K_sv 06Sep2000                 :
 energy of atom  1       EATOM= -774.7423
 kinetic energy error for atom=    0.0014 (will be added to EATOM!!)
 PAW_PBE F 08Apr2002                    :
 energy of atom  2       EATOM= -659.4942
 kinetic energy error for atom=    0.0323 (will be added to EATOM!!)
 
 
 POSCAR: CONTCARSi\(2)
  positions in direct lattice
  No initial velocities read in
 exchange correlation table for  LEXCH =        8
   RHO(1)=    0.500       N(1)  =     2000
   RHO(2)=  100.500       N(2)  =     4000

 VTST: version 4.2, (08/11/21)

 CHAIN: initializing optimizer
 
 OPT: Using VASP Conjugate-Gradient optimizer
 CHAIN: Read ICHAIN            0
 
 POSCAR: CONTCARSi\(2)
  positions in direct lattice
  No initial velocities read in
 


--------------------------------------------------------------------------------------------------------


 ion  position               nearest neighbor table
   1  0.600  0.600  0.600-   2 1.57
   2  0.500  0.500  0.500-   1 1.57
 
  LATTYP: Found a simple orthorhombic cell.
 ALAT       =     8.0000000000
 B/A-ratio  =     1.1250000000
 C/A-ratio  =     1.2500000000
  
  Lattice vectors:
  
 A1 = (   8.0000000000,   0.0000000000,   0.0000000000)
 A2 = (   0.0000000000,   9.0000000000,   0.0000000000)
 A3 = (   0.0000000000,   0.0000000000,  10.0000000000)


Analysis of symmetry for initial positions (statically):
=====================================================================
 Subroutine PRICEL returns:
 Original cell was already a primitive cell.
 

 Routine SETGRP: Setting up the symmetry group for a 
 simple orthorhombic supercell.


 Subroutine GETGRP returns: Found  1 space group operations
 (whereof  1 operations were pure point group operations)
 out of a pool of  8 trial point group operations.


The static configuration has the point symmetry C_1 .


Analysis of symmetry for dynamics (positions and initial velocities):
=====================================================================
 Subroutine PRICEL returns:
 Original cell was already a primitive cell.
 

 Routine SETGRP: Setting up the symmetry group for a 
 simple orthorhombic supercell.


 Subroutine GETGRP returns: Found  1 space group operations
 (whereof  1 operations were pure point group operations)
 out of a pool of  8 trial point group operations.


The dynamic configuration has the point symmetry C_1 .


 Subroutine INISYM returns: Found  1 space group operations
 (whereof  1 operations are pure point group operations),
 and found     1 'primitive' translations


----------------------------------------------------------------------------------------

                                     Primitive cell                                     

  volume of cell :     720.0000

  direct lattice vectors                    reciprocal lattice vectors
     8.000000000  0.000000000  0.000000000     0.125000000  0.000000000  0.000000000
     0.000000000  9.000000000  0.000000000     0.000000000  0.111111111  0.000000000
     0.000000000  0.000000000 10.000000000     0.000000000  0.000000000  0.100000000

  length of vectors
     8.000000000  9.000000000 10.000000000     0.125000000  0.111111111  0.100000000

  position of ions in fractional coordinates (direct lattice)
     0.600000000  0.600000000  0.600000000
     0.500000000  0.500000000  0.500000000

  ion indices of the primitive-cell ions
   primitive index   ion index
                 1           1
                 2           2

----------------------------------------------------------------------------------------

 
 -----------------------------------------------------------------------------
|                                                                             |
|           W    W    AA    RRRRR   N    N  II  N    N   GGGG   !!!           |
|           W    W   A  A   R    R  NN   N  II  NN   N  G    G  !!!           |
|           W    W  A    A  R    R  N N  N  II  N N  N  G       !!!           |
|           W WW W  AAAAAA  RRRRR   N  N N  II  N  N N  G  GGG   !            |
|           WW  WW  A    A  R   R   N   NN  II  N   NN  G    G                |
|           W    W  A    A  R    R  N    N  II  N    N   GGGG   !!!           |
|                                                                             |
|     The requested file  could not be found or opened for reading            |
|     k-point information. Automatic k-point generation is used as a          |
|     fallback, which may lead to unwanted results.                           |
|                                                                             |
 -----------------------------------------------------------------------------

 

Automatic generation of k-mesh.
 Grid dimensions derived from KSPACING:
 generate k-points for:    4    4    4

 Generating k-lattice:

  Cartesian coordinates                     Fractional coordinates (reciprocal lattice)
     0.031250000  0.000000000  0.000000000     0.250000000  0.000000000  0.000000000
     0.000000000  0.027777778  0.000000000     0.000000000  0.250000000  0.000000000
     0.000000000  0.000000000  0.025000000     0.000000000  0.000000000  0.250000000

  Length of vectors
     0.031250000  0.027777778  0.025000000

  Shift w.r.t. Gamma in fractional coordinates (k-lattice)
     0.000000000  0.000000000  0.000000000

 
 Subroutine IBZKPT returns following result:
 ===========================================
 
 Found     36 irreducible k-points:
 
 Following reciprocal coordinates:
            Coordinates               Weight
  0.000000  0.000000  0.000000      1.000000
  0.250000  0.000000  0.000000      2.000000
  0.500000  0.000000  0.000000      1.000000
  0.000000  0.250000  0.000000      2.000000
  0.250000  0.250000  0.000000      2.000000
  0.250000 -0.250000  0.000000      2.000000
  0.500000  0.250000  0.000000      2.000000
  0.000000  0.500000  0.000000      1.000000
  0.250000  0.500000  0.000000      2.000000
  0.500000  0.500000  0.000000      1.000000
  0.000000  0.000000  0.250000      2.000000
  0.250000  0.000000  0.250000      2.000000
  0.250000  0.000000 -0.250000      2.000000
  0.500000  0.000000  0.250000      2.000000
  0.000000  0.250000  0.250000      2.000000
  0.000000  0.250000 -0.250000      2.000000
  0.250000  0.250000  0.250000      2.000000
  0.250000 -0.250000 -0.250000      2.000000
 -0.250000  0.250000 -0.250000      2.000000
 -0.250000 -0.250000  0.250000      2.000000
  0.500000  0.250000  0.250000      2.000000
  0.500000  0.250000 -0.250000      2.000000
  0.000000  0.500000  0.250000      2.000000
  0.250000  0.500000  0.250000      2.000000
  0.250000  0.500000 -0.250000      2.000000
  0.500000  0.500000  0.250000      2.000000
  0.000000  0.000000  0.500000      1.000000
  0.250000  0.000000  0.500000      2.000000
  0.500000  0.000000  0.500000      1.000000
  0.000000  0.250000  0.500000      2.000000
  0.250000  0.250000  0.500000      2.000000
  0.250000 -0.250000  0.500000      2.000000
  0.500000  0.250000  0.500000      2.000000
  0.000000  0.500000  0.500000      1.000000
  0.250000  0.500000  0.500000      2.000000
  0.500000  0.500000  0.500000      1.000000
 
 Following cartesian coordinates:
            Coordinates               Weight
  0.000000  0.000000  0.000000      1.000000
  0.031250  0.000000  0.000000      2.000000
  0.062500  0.000000  0.000000      1.000000
  0.000000  0.027778  0.000000      2.000000
  0.031250  0.027778  0.000000      2.000000
  0.031250 -0.027778  0.000000      2.000000
  0.062500  0.027778  0.000000      2.000000
  0.000000  0.055556  0.000000      1.000000
  0.031250  0.055556  0.000000      2.000000
  0.062500  0.055556  0.000000      1.000000
  0.000000  0.000000  0.025000      2.000000
  0.031250  0.000000  0.025000      2.000000
  0.031250  0.000000 -0.025000      2.000000
  0.062500  0.000000  0.025000      2.000000
  0.000000  0.027778  0.025000      2.000000
  0.000000  0.027778 -0.025000      2.000000
  0.031250  0.027778  0.025000      2.000000
  0.031250 -0.027778 -0.025000      2.000000
 -0.031250  0.027778 -0.025000      2.000000
 -0.031250 -0.027778  0.025000      2.000000
  0.062500  0.027778  0.025000      2.000000
  0.062500  0.027778 -0.025000      2.000000
  0.000000  0.055556  0.025000      2.000000
  0.031250  0.055556  0.025000      2.000000
  0.031250  0.055556 -0.025000      2.000000
  0.062500  0.055556  0.025000      2.000000
  0.000000  0.000000  0.050000      1.000000
  0.031250  0.000000  0.050000      2.000000
  0.062500  0.000000  0.050000      1.000000
  0.000000  0.027778  0.050000      2.000000
  0.031250  0.027778  0.050000      2.000000
  0.031250 -0.027778  0.050000      2.000000
  0.062500  0.027778  0.050000      2.000000
  0.000000  0.055556  0.050000      1.000000
  0.031250  0.055556  0.050000      2.000000
  0.062500  0.055556  0.050000      1.000000
 


--------------------------------------------------------------------------------------------------------




 Dimension of arrays:
   k-points           NKPTS =     36   k-points in BZ     NKDIM =     36   number of bands    NBANDS=     12
   number of dos      NEDOS =    301   number of ions     NIONS =      2
   non local maximal  LDIM  =      5   non local SUM 2l+1 LMDIM =     13
   total plane-waves  NPLWV = 336000
   max r-space proj   IRMAX =      1   max aug-charges    IRDMAX=  21918
   dimension x,y,z NGX =    60 NGY =   70 NGZ =   80
   dimension x,y,z NGXF=   120 NGYF=  140 NGZF=  160
   support grid    NGXF=   120 NGYF=  140 NGZF=  160
   ions per type =               1   1
   NGX,Y,Z   is equivalent  to a cutoff of  12.47, 12.93, 13.30 a.u.
   NGXF,Y,Z  is equivalent  to a cutoff of  24.94, 25.86, 26.60 a.u.

 SYSTEM =  unknown system                          
 POSCAR =  CONTCARSi\(2)                           

 Startparameter for this run:
   NWRITE =      2    write-flag & timer
   PREC   = accura    normal or accurate (medium, high low for compatibility)
   ISTART =      0    job   : 0-new  1-cont  2-samecut
   ICHARG =      1    charge: 1-file 2-atom 10-const
   ISPIN  =      1    spin polarized calculation?
   LNONCOLLINEAR =      F non collinear calculations
   LSORBIT =      F    spin-orbit coupling
   INIWAV =      1    electr: 0-lowe 1-rand  2-diag
   LASPH  =      F    aspherical Exc in radial PAW
 Electronic Relaxation 1
   ENCUT  =  520.0 eV  38.22 Ry    6.18 a.u.  14.87 16.73 18.59*2*pi/ulx,y,z
   ENINI  =  520.0     initial cutoff
   ENAUG  =  613.6 eV  augmentation charge cutoff
   NELM   =     60;   NELMIN=  2; NELMDL=  0     # of ELM steps 
   EDIFF  = 0.1E-05   stopping-criterion for ELM
   LREAL  =      F    real-space projection
   NLSPLINE    = F    spline interpolate recip. space projectors
   LCOMPAT=      F    compatible to vasp.4.4
   GGA_COMPAT  = T    GGA compatible to vasp.4.4-vasp.4.6
   LMAXPAW     = -100 max onsite density
   LMAXMIX     =    2 max onsite mixed and CHGCAR
   VOSKOWN=      0    Vosko Wilk Nusair interpolation
   ROPT   =    0.00000   0.00000
 Ionic relaxation
   EDIFFG = -.1E-01   stopping-criterion for IOM
   NSW    =      5    number of steps for IOM
   NBLOCK =      1;   KBLOCK =      5    inner block; outer block 
   IBRION =      2    ionic relax: 0-MD 1-quasi-New 2-CG
   NFREE  =      1    steps in history (QN), initial steepest desc. (CG)
   ISIF   =      2    stress and relaxation
   IWAVPR =     11    prediction:  0-non 1-charg 2-wave 3-comb
   ISYM   =      2    0-nonsym 1-usesym 2-fastsym
   LCORR  =      T    Harris-Foulkes like correction to forces

   POTIM  = 0.5000    time-step for ionic-motion
   TEIN   =    0.0    initial temperature
   TEBEG  =    0.0;   TEEND  =   0.0 temperature during run
   SMASS  =  -3.00    Nose mass-parameter (am)
   estimated Nose-frequenzy (Omega)   =  0.10E-29 period in steps = 0.13E+47 mass=  -0.146E-26a.u.
   SCALEE = 1.0000    scale energy and forces
   NPACO  =    256;   APACO  = 10.0  distance and # of slots for P.C.
   PSTRESS=    0.0 pullay stress

  Mass of Ions in am
   POMASS =  39.10 19.00
  Ionic Valenz
   ZVAL   =   9.00  7.00
  Atomic Wigner-Seitz radii
   RWIGS  =  -1.00 -1.00
  virtual crystal weights 
   VCA    =   1.00  1.00
   NELECT =      16.0000    total number of electrons
   NUPDOWN=      -1.0000    fix difference up-down

 DOS related values:
   EMIN   =  10.00;   EMAX   =-10.00  energy-range for DOS
   EFERMI =   0.00
   ISMEAR =     0;   SIGMA  =   0.05  broadening in eV -4-tet -1-fermi 0-gaus

 Electronic relaxation 2 (details)
   IALGO  =     68    algorithm
   LDIAG  =      T    sub-space diagonalisation (order eigenvalues)
   LSUBROT=      F    optimize rotation matrix (better conditioning)
   TURBO    =      0    0=normal 1=particle mesh
   IRESTART =      0    0=no restart 2=restart with 2 vectors
   NREBOOT  =      0    no. of reboots
   NMIN     =      0    reboot dimension
   EREF     =   0.00    reference energy to select bands
   IMIX   =      4    mixing-type and parameters
     AMIX     =   0.40;   BMIX     =  1.00
     AMIX_MAG =   1.60;   BMIX_MAG =  1.00
     AMIN     =   0.10
     WC   =   100.;   INIMIX=   1;  MIXPRE=   1;  MAXMIX= -45

 Intra band minimization:
   WEIMIN = 0.0010     energy-eigenvalue tresh-hold
   EBREAK =  0.21E-07  absolut break condition
   DEPER  =   0.30     relativ break condition  

   TIME   =   0.40     timestep for ELM

  volume/ion in A,a.u.               =     360.00      2429.40
  Fermi-wavevector in a.u.,A,eV,Ry     =   0.460261  0.869767  2.882258  0.211840
  Thomas-Fermi vector in A             =   1.446625
 
 Write flags
   LWAVE        =      F    write WAVECAR
   LDOWNSAMPLE  =      F    k-point downsampling of WAVECAR
   LCHARG       =      F    write CHGCAR
   LVTOT        =      F    write LOCPOT, total local potential
   LVHAR        =      F    write LOCPOT, Hartree potential only
   LELF         =      F    write electronic localiz. function (ELF)
   LORBIT       =      0    0 simple, 1 ext, 2 COOP (PROOUT), +10 PAW based schemes


 Dipole corrections
   LMONO  =      F    monopole corrections only (constant potential shift)
   LDIPOL =      F    correct potential (dipole corrections)
   IDIPOL =      0    1-x, 2-y, 3-z, 4-all directions 
   EPSILON=  1.0000000 bulk dielectric constant

 Exchange correlation treatment:
   GGA     =    --    GGA type
   LEXCH   =     8    internal setting for exchange type
   LIBXC   =     F    Libxc                    
   VOSKOWN =     0    Vosko Wilk Nusair interpolation
   LHFCALC =     F    Hartree Fock is set to
   LHFONE  =     F    Hartree Fock one center treatment
   AEXX    =    0.0000 exact exchange contribution

 Linear response parameters
   LEPSILON=     F    determine dielectric tensor
   LRPA    =     F    only Hartree local field effects (RPA)
   LNABLA  =     F    use nabla operator in PAW spheres
   LVEL    =     F    velocity operator in full k-point grid
   CSHIFT  =0.1000    complex shift for real part using Kramers Kronig
   OMEGAMAX=  -1.0    maximum frequency
   DEG_THRESHOLD= 0.2000000E-02 threshold for treating states as degnerate
   RTIME   =   -0.100 relaxation time in fs
  (WPLASMAI=    0.000 imaginary part of plasma frequency in eV, 0.658/RTIME)
   DFIELD  = 0.0000000 0.0000000 0.0000000 field for delta impulse in time
 
  Optional k-point grid parameters
   LKPOINTS_OPT  =     F    use optional k-point grid
   KPOINTS_OPT_MODE=     1    mode for optional k-point grid
 
 Orbital magnetization related:
   ORBITALMAG=     F  switch on orbital magnetization
   LCHIMAG   =     F  perturbation theory with respect to B field
   DQ        =  0.001000  dq finite difference perturbation B field
   LLRAUG    =     F  two centre corrections for induced B field



--------------------------------------------------------------------------------------------------------


 conjugate gradient relaxation of ions
 charge density and potential will be updated during run
 non-spin polarized calculation
 RMM-DIIS sequential band-by-band and
  variant of blocked Davidson during initial phase
 perform sub-space diagonalisation
    before iterative eigenvector-optimisation
 modified Broyden-mixing scheme, WC =      100.0
 initial mixing is a Kerker type mixing with AMIX =  0.4000 and BMIX =      1.0000
 Hartree-type preconditioning will be used
 using additional bands            4
 reciprocal scheme for non local part
 use partial core corrections
 calculate Harris-corrections to forces 
   (improved forces if not selfconsistent)
 use gradient corrections 
 use of overlap-Matrix (Vanderbilt PP)
 Gauss-broadening in eV      SIGMA  =   0.05


--------------------------------------------------------------------------------------------------------


  energy-cutoff  :      520.00
  volume of cell :      720.00
      direct lattice vectors                 reciprocal lattice vectors
     8.000000000  0.000000000  0.000000000     0.125000000  0.000000000  0.000000000
     0.000000000  9.000000000  0.000000000     0.000000000  0.111111111  0.000000000
     0.000000000  0.000000000 10.000000000     0.000000000  0.000000000  0.100000000

  length of vectors
     8.000000000  9.000000000 10.000000000     0.125000000  0.111111111  0.100000000


 
 k-points in units of 2pi/SCALE and weight: read from INCAR                         
   0.00000000  0.00000000  0.00000000       0.016
   0.03125000  0.00000000  0.00000000       0.031
   0.06250000  0.00000000  0.00000000       0.016
   0.00000000  0.02777778  0.00000000       0.031
   0.03125000  0.02777778  0.00000000       0.031
   0.03125000 -0.02777778  0.00000000       0.031
   0.06250000  0.02777778  0.00000000       0.031
   0.00000000  0.05555556  0.00000000       0.016
   0.03125000  0.05555556  0.00000000       0.031
   0.06250000  0.05555556  0.00000000       0.016
   0.00000000  0.00000000  0.02500000       0.031
   0.03125000  0.00000000  0.02500000       0.031
   0.03125000  0.00000000 -0.02500000       0.031
   0.06250000  0.00000000  0.02500000       0.031
   0.00000000  0.02777778  0.02500000       0.031
   0.00000000  0.02777778 -0.02500000       0.031
   0.03125000  0.02777778  0.02500000       0.031
   0.03125000 -0.02777778 -0.02500000       0.031
  -0.03125000  0.02777778 -0.02500000       0.031
  -0.03125000 -0.02777778  0.02500000       0.031
   0.06250000  0.02777778  0.02500000       0.031
   0.06250000  0.02777778 -0.02500000       0.031
   0.00000000  0.05555556  0.02500000       0.031
   0.03125000  0.05555556  0.02500000       0.031
   0.03125000  0.05555556 -0.02500000       0.031
   0.06250000  0.05555556  0.02500000       0.031
   0.00000000  0.00000000  0.05000000       0.016
   0.03125000  0.00000000  0.05000000       0.031
   0.06250000  0.00000000  0.05000000       0.016
   0.00000000  0.02777778  0.05000000       0.031
   0.03125000  0.02777778  0.05000000       0.031
   0.03125000 -0.02777778  0.05000000       0.031
   0.06250000  0.02777778  0.05000000       0.031
   0.00000000  0.05555556  0.05000000       0.016
   0.03125000  0.05555556  0.05000000       0.031
   0.06250000  0.05555556  0.05000000       0.016
 
 k-points in reciprocal lattice and weights: read from INCAR                         
   0.00000000  0.00000000  0.00000000       0.016
   0.25000000  0.00000000  0.00000000       0.031
   0.50000000  0.00000000  0.00000000       0.016
   0.00000000  0.25000000  0.00000000       0.031
   0.25000000  0.25000000  0.00000000       0.031
   0.25000000 -0.25000000  0.00000000       0.031
   0.50000000  0.25000000  0.00000000       0.031
   0.00000000  0.50000000  0.00000000       0.016
   0.25000000  0.50000000  0.00000000       0.031
   0.50000000  0.50000000  0.00000000       0.016
   0.00000000  0.00000000  0.25000000       0.031
   0.25000000  0.00000000  0.25000000       0.031
   0.25000000  0.00000000 -0.25000000       0.031
   0.50000000  0.00000000  0.25000000       0.031
   0.00000000  0.25000000  0.25000000       0.031
   0.00000000  0.25000000 -0.25000000       0.031
   0.25000000  0.25000000  0.25000000       0.031
   0.25000000 -0.25000000 -0.25000000       0.031
  -0.25000000  0.25000000 -0.25000000       0.031
  -0.25000000 -0.25000000  0.25000000       0.031
   0.50000000  0.25000000  0.25000000       0.031
   0.50000000  0.25000000 -0.25000000       0.031
   0.00000000  0.50000000  0.25000000       0.031
   0.25000000  0.50000000  0.25000000       0.031
   0.25000000  0.50000000 -0.25000000       0.031
   0.50000000  0.50000000  0.25000000       0.031
   0.00000000  0.00000000  0.50000000       0.016
   0.25000000  0.00000000  0.50000000       0.031
   0.50000000  0.00000000  0.50000000       0.016
   0.00000000  0.25000000  0.50000000       0.031
   0.25000000  0.25000000  0.50000000       0.031
   0.25000000 -0.25000000  0.50000000       0.031
   0.50000000  0.25000000  0.50000000       0.031
   0.00000000  0.50000000  0.50000000       0.016
   0.25000000  0.50000000  0.50000000       0.031
   0.50000000  0.50000000  0.50000000       0.016
 
 position of ions in fractional coordinates (direct lattice) 
   0.60000000  0.60000000  0.60000000
   0.50000000  0.50000000  0.50000000
 
 position of ions in cartesian coordinates  (Angst):
   4.80000000  5.40000000  6.00000000
   4.00000000  4.50000000  5.00000000
 


--------------------------------------------------------------------------------------------------------


 k-point   1 :   0.0000 0.0000 0.0000  plane waves:   19381
 k-point   2 :   0.2500 0.0000 0.0000  plane waves:   19376
 k-point   3 :   0.5000 0.0000 0.0000  plane waves:   19422
 k-point   4 :   0.0000 0.2500 0.0000  plane waves:   19377
 k-point   5 :   0.2500 0.2500 0.0000  plane waves:   19409
 k-point   6 :   0.2500-0.2500 0.0000  plane waves:   19409
 k-point   7 :   0.5000 0.2500 0.0000  plane waves:   19390
 k-point   8 :   0.0000 0.5000 0.0000  plane waves:   19370
 k-point   9 :   0.2500 0.5000 0.0000  plane waves:   19414
 k-point  10 :   0.5000 0.5000 0.0000  plane waves:   19452
 k-point  11 :   0.0000 0.0000 0.2500  plane waves:   19405
 k-point  12 :   0.2500 0.0000 0.2500  plane waves:   19392
 k-point  13 :   0.2500 0.0000-0.2500  plane waves:   19392
 k-point  14 :   0.5000 0.0000 0.2500  plane waves:   19368
 k-point  15 :   0.0000 0.2500 0.2500  plane waves:   19378
 k-point  16 :   0.0000 0.2500-0.2500  plane waves:   19378
 k-point  17 :   0.2500 0.2500 0.2500  plane waves:   19391
 k-point  18 :   0.2500-0.2500-0.2500  plane waves:   19391
 k-point  19 :  -0.2500 0.2500-0.2500  plane waves:   19391
 k-point  20 :  -0.2500-0.2500 0.2500  plane waves:   19391
 k-point  21 :   0.5000 0.2500 0.2500  plane waves:   19376
 k-point  22 :   0.5000 0.2500-0.2500  plane waves:   19376
 k-point  23 :   0.0000 0.5000 0.2500  plane waves:   19400
 k-point  24 :   0.2500 0.5000 0.2500  plane waves:   19398
 k-point  25 :   0.2500 0.5000-0.2500  plane waves:   19398
 k-point  26 :   0.5000 0.5000 0.2500  plane waves:   19416
 k-point  27 :   0.0000 0.0000 0.5000  plane waves:   19406
 k-point  28 :   0.2500 0.0000 0.5000  plane waves:   19388
 k-point  29 :   0.5000 0.0000 0.5000  plane waves:   19348
 k-point  30 :   0.0000 0.2500 0.5000  plane waves:   19370
 k-point  31 :   0.2500 0.2500 0.5000  plane waves:   19348
 k-point  32 :   0.2500-0.2500 0.5000  plane waves:   19348
 k-point  33 :   0.5000 0.2500 0.5000  plane waves:   19396
 k-point  34 :   0.0000 0.5000 0.5000  plane waves:   19348
 k-point  35 :   0.2500 0.5000 0.5000  plane waves:   19380
 k-point  36 :   0.5000 0.5000 0.5000  plane waves:   19376

 maximum and minimum number of plane-waves per node :     19452    19348

 maximum number of plane-waves:     19452
 maximum index in each direction: 
   IXMAX=   15   IYMAX=   16   IZMAX=   18
   IXMIN=  -15   IYMIN=  -17   IZMIN=  -19


 serial   3D FFT for wavefunctions
 parallel 3D FFT for charge:
    minimum data exchange during FFTs selected (reduces bandwidth)


 total amount of memory used by VASP MPI-rank0   467919. kBytes
=======================================================================

   base      :      30000. kBytes
   nonl-proj :     146279. kBytes
   fftplans  :      92596. kBytes
   grid      :     165379. kBytes
   one-center:         16. kBytes
   wavefun   :      33649. kBytes
 
     INWAV:  cpu time      0.0003: real time      0.0000
 Broyden mixing: mesh for mixing (old mesh)
   NGX = 29   NGY = 33   NGZ = 37
  (NGX  =120   NGY  =140   NGZ  =160)
  gives a total of  35409 points

 initial charge density was supplied:
 charge density of overlapping atoms calculated
 number of electron      16.0000000 magnetization 
 keeping initial charge density in first step


--------------------------------------------------------------------------------------------------------


 Maximum index for augmentation-charges        21125 (set IRDMAX)


--------------------------------------------------------------------------------------------------------


 First call to EWALD:  gamma=   0.198
 Maximum number of real-space cells 3x 3x 3
 Maximum number of reciprocal cells 3x 3x 3

    FEWALD:  cpu time      0.0033: real time      0.0017


--------------------------------------- Iteration      1(   1)  ---------------------------------------


    POTLOK:  cpu time      3.9144: real time      0.5645
    SETDIJ:  cpu time      0.0416: real time      0.0060
     EDDAV:  cpu time      6.5139: real time      0.9362
       DOS:  cpu time      0.0084: real time      0.0012
    --------------------------------------------
      LOOP:  cpu time     10.4789: real time      1.5080

 eigenvalue-minimisations  :  1376
 total energy-change (2. order) : 0.1033602E+03  (-0.5666272E+03)
 number of electron      16.0000000 magnetization 
 augmentation part       16.0000000 magnetization 

 Free energy of the ion-electron system (eV)
  ---------------------------------------------------
  alpha Z        PSCENC =         3.62109549
  Ewald energy   TEWEN  =         9.33877718
  -Hartree energ DENC   =     -1194.42413480
  -exchange      EXHF   =         0.00000000
  -V(xc)+E(xc)   XCENC  =        72.09850053
  PAW double counting   =       939.13658234     -939.20850634
  entropy T*S    EENTRO =        -0.00157188
  eigenvalues    EBANDS =      -221.40331401
  atomic energy  EATOM  =      1434.20279271
  Solvation  Ediel_sol  =         0.00000000
  ---------------------------------------------------
  free energy    TOTEN  =       103.36022121 eV

  energy without entropy =      103.36179310  energy(sigma->0) =      103.36100715


--------------------------------------------------------------------------------------------------------




--------------------------------------- Iteration      1(   2)  ---------------------------------------


     EDDAV:  cpu time      6.7771: real time      0.9737
       DOS:  cpu time      0.0048: real time      0.0007
    --------------------------------------------
      LOOP:  cpu time      6.7816: real time      0.9744

 eigenvalue-minimisations  :  1576
 total energy-change (2. order) :-0.9707145E+02  (-0.9437193E+02)
 number of electron      16.0000000 magnetization 
 augmentation part       16.0000000 magnetization 

 Free energy of the ion-electron system (eV)
  ---------------------------------------------------
  alpha Z        PSCENC =         3.62109549
  Ewald energy   TEWEN  =         9.33877718
  -Hartree energ DENC   =     -1194.42413480
  -exchange      EXHF   =         0.00000000
  -V(xc)+E(xc)   XCENC  =        72.09850053
  PAW double counting   =       939.13658234     -939.20850634
  entropy T*S    EENTRO =        -0.00121933
  eigenvalues    EBANDS =      -318.47511516
  atomic energy  EATOM  =      1434.20279271
  Solvation  Ediel_sol  =         0.00000000
  ---------------------------------------------------
  free energy    TOTEN  =         6.28877262 eV

  energy without entropy =        6.28999195  energy(sigma->0) =        6.28938228


--------------------------------------------------------------------------------------------------------




--------------------------------------- Iteration      1(   3)  ---------------------------------------


     EDDAV:  cpu time      5.3355: real time      0.7659
       DOS:  cpu time      0.0028: real time      0.0004
    --------------------------------------------
      LOOP:  cpu time      5.3383: real time      0.7663

 eigenvalue-minimisations  :  1076
 total energy-change (2. order) :-0.1073669E+02  (-0.1054605E+02)
 number of electron      16.0000000 magnetization 
 augmentation part       16.0000000 magnetization 

 Free energy of the ion-electron system (eV)
  ---------------------------------------------------
  alpha Z        PSCENC =         3.62109549
  Ewald energy   TEWEN  =         9.33877718
  -Hartree energ DENC   =     -1194.42413480
  -exchange      EXHF   =         0.00000000
  -V(xc)+E(xc)   XCENC  =        72.09850053
  PAW double counting   =       939.13658234     -939.20850634
  entropy T*S    EENTRO =        -0.00000000
  eigenvalues    EBANDS =      -329.21302083
  atomic energy  EATOM  =      1434.20279271
  Solvation  Ediel_sol  =         0.00000000
  ---------------------------------------------------
  free energy    TOTEN  =        -4.44791372 eV

  energy without entropy =       -4.44791372  energy(sigma->0) =       -4.44791372


--------------------------------------------------------------------------------------------------------




--------------------------------------- Iteration      1(   4)  ---------------------------------------


     EDDAV:  cpu time      6.0501: real time      0.8686
       DOS:  cpu time      0.0028: real time      0.0004
    --------------------------------------------
      LOOP:  cpu time      6.0529: real time      0.8690

 eigenvalue-minimisations  :  1332
 total energy-change (2. order) :-0.4030514E+00  (-0.4024887E+00)
 number of electron      16.0000000 magnetization 
 augmentation part       16.0000000 magnetization 

 Free energy of the ion-electron system (eV)
  ---------------------------------------------------
  alpha Z        PSCENC =         3.62109549
  Ewald energy   TEWEN  =         9.33877718
  -Hartree energ DENC   =     -1194.42413480
  -exchange      EXHF   =         0.00000000
  -V(xc)+E(xc)   XCENC  =        72.09850053
  PAW double counting   =       939.13658234     -939.20850634
  entropy T*S    EENTRO =        -0.00000000
  eigenvalues    EBANDS =      -329.61607221
  atomic energy  EATOM  =      1434.20279271
  Solvation  Ediel_sol  =         0.00000000
  ---------------------------------------------------
  free energy    TOTEN  =        -4.85096511 eV

  energy without entropy =       -4.85096511  energy(sigma->0) =       -4.85096511


--------------------------------------------------------------------------------------------------------




--------------------------------------- Iteration      1(   5)  ---------------------------------------


     EDDAV:  cpu time      5.2221: real time      0.7498
       DOS:  cpu time      0.0027: real time      0.0004
    CHARGE:  cpu time      0.4510: real time      0.0650
    MIXING:  cpu time      0.2554: real time      0.0379
    --------------------------------------------
      LOOP:  cpu time      5.9319: real time      0.8531

 eigenvalue-minimisations  :  1072
 total energy-change (2. order) :-0.7088957E-02  (-0.7088506E-02)
 number of electron      15.9999998 magnetization 
 augmentation part        2.9677932 magnetization 

 Broyden mixing:
  rms(total) = 0.85438E+00    rms(broyden)= 0.85415E+00
  rms(prec ) = 0.11555E+01
  weight for this iteration     100.00

 Free energy of the ion-electron system (eV)
  ---------------------------------------------------
  alpha Z        PSCENC =         3.62109549
  Ewald energy   TEWEN  =         9.33877718
  -Hartree energ DENC   =     -1194.42413480
  -exchange      EXHF   =         0.00000000
  -V(xc)+E(xc)   XCENC  =        72.09850053
  PAW double counting   =       939.13658234     -939.20850634
  entropy T*S    EENTRO =        -0.00000000
  eigenvalues    EBANDS =      -329.62316117
  atomic energy  EATOM  =      1434.20279271
  Solvation  Ediel_sol  =         0.00000000
  ---------------------------------------------------
  free energy    TOTEN  =        -4.85805406 eV

  energy without entropy =       -4.85805406  energy(sigma->0) =       -4.85805406


--------------------------------------------------------------------------------------------------------




--------------------------------------- Iteration      1(   6)  ---------------------------------------


    POTLOK:  cpu time      3.8695: real time      0.5580
    SETDIJ:  cpu time      0.0669: real time      0.0097
    EDDIAG:  cpu time      0.5638: real time      0.0817
  RMM-DIIS:  cpu time      1.1054: real time      0.3240
    ORTHCH:  cpu time      0.0420: real time      0.0213
       DOS:  cpu time      0.0007: real time      0.0003
    CHARGE:  cpu time      0.2850: real time      0.0599
    MIXING:  cpu time      0.2199: real time      0.0320
    --------------------------------------------
      LOOP:  cpu time      6.1532: real time      1.0870

 eigenvalue-minimisations  :   864
 total energy-change (2. order) : 0.2573817E+01  (-0.9025914E+00)
 number of electron      15.9999998 magnetization 
 augmentation part        2.8044731 magnetization 

 Broyden mixing:
  rms(total) = 0.22714E+00    rms(broyden)= 0.22675E+00
  rms(prec ) = 0.38486E+00
  weight for this iteration     100.00

 eigenvalues of (default mixing * dielectric matrix)
  average eigenvalue GAMMA=   1.0237
  1.0237

 Free energy of the ion-electron system (eV)
  ---------------------------------------------------
  alpha Z        PSCENC =         3.62109549
  Ewald energy   TEWEN  =         9.33877718
  -Hartree energ DENC   =     -1236.29948768
  -exchange      EXHF   =         0.00000000
  -V(xc)+E(xc)   XCENC  =        74.14432263
  PAW double counting   =      1021.19257402    -1022.01233864
  entropy T*S    EENTRO =        -0.00000000
  eigenvalues    EBANDS =      -286.47197270
  atomic energy  EATOM  =      1434.20279271
  Solvation  Ediel_sol  =         0.00000000
  ---------------------------------------------------
  free energy    TOTEN  =        -2.28423699 eV

  energy without entropy =       -2.28423699  energy(sigma->0) =       -2.28423699


--------------------------------------------------------------------------------------------------------




--------------------------------------- Iteration      1(   7)  ---------------------------------------


    POTLOK:  cpu time      3.8406: real time      0.5506
    SETDIJ:  cpu time      0.0214: real time      0.0031
    EDDIAG:  cpu time      0.5559: real time      0.0802
  RMM-DIIS:  cpu time      1.1973: real time      0.3468
    ORTHCH:  cpu time      0.0418: real time      0.0212
       DOS:  cpu time      0.0006: real time      0.0003
    CHARGE:  cpu time      0.2818: real time      0.0590
    MIXING:  cpu time      0.2225: real time      0.0321
    --------------------------------------------
      LOOP:  cpu time      6.1620: real time      1.0933

 eigenvalue-minimisations  :   900
 total energy-change (2. order) : 0.1844432E+00  (-0.2095772E+00)
 number of electron      15.9999998 magnetization 
 augmentation part        2.7505292 magnetization 

 Broyden mixing:
  rms(total) = 0.17777E+00    rms(broyden)= 0.17770E+00
  rms(prec ) = 0.26297E+00
  weight for this iteration     100.00

 eigenvalues of (default mixing * dielectric matrix)
  average eigenvalue GAMMA=   1.5629
  1.5629  1.5629

 Free energy of the ion-electron system (eV)
  ---------------------------------------------------
  alpha Z        PSCENC =         3.62109549
  Ewald energy   TEWEN  =         9.33877718
  -Hartree energ DENC   =     -1252.67977194
  -exchange      EXHF   =         0.00000000
  -V(xc)+E(xc)   XCENC  =        74.81507541
  PAW double counting   =      1056.45254104    -1057.03335390
  entropy T*S    EENTRO =        -0.00000000
  eigenvalues    EBANDS =      -270.81694979
  atomic energy  EATOM  =      1434.20279271
  Solvation  Ediel_sol  =         0.00000000
  ---------------------------------------------------
  free energy    TOTEN  =        -2.09979379 eV

  energy without entropy =       -2.09979379  energy(sigma->0) =       -2.09979379


--------------------------------------------------------------------------------------------------------




--------------------------------------- Iteration      1(   8)  ---------------------------------------


    POTLOK:  cpu time      3.9320: real time      0.5662
    SETDIJ:  cpu time      1.1071: real time      0.1604
    EDDIAG:  cpu time      0.2961: real time      0.0802
  RMM-DIIS:  cpu time      0.6238: real time      0.3151
    ORTHCH:  cpu time      0.0414: real time      0.0209
       DOS:  cpu time      0.0011: real time      0.0005
    CHARGE:  cpu time      0.2801: real time      0.0585
    MIXING:  cpu time      0.2248: real time      0.0323
    --------------------------------------------
      LOOP:  cpu time      6.5063: real time      1.2341

 eigenvalue-minimisations  :   864
 total energy-change (2. order) : 0.1502695E+00  (-0.3991413E-01)
 number of electron      15.9999998 magnetization 
 augmentation part        2.7450942 magnetization 

 Broyden mixing:
  rms(total) = 0.66519E-01    rms(broyden)= 0.66492E-01
  rms(prec ) = 0.12581E+00
  weight for this iteration     100.00

 eigenvalues of (default mixing * dielectric matrix)
  average eigenvalue GAMMA=   1.3979
  2.1066  0.9003  1.1867

 Free energy of the ion-electron system (eV)
  ---------------------------------------------------
  alpha Z        PSCENC =         3.62109549
  Ewald energy   TEWEN  =         9.33877718
  -Hartree energ DENC   =     -1261.54293910
  -exchange      EXHF   =         0.00000000
  -V(xc)+E(xc)   XCENC  =        75.01517918
  PAW double counting   =      1075.82262874    -1075.75467931
  entropy T*S    EENTRO =        -0.00000000
  eigenvalues    EBANDS =      -262.65237916
  atomic energy  EATOM  =      1434.20279271
  Solvation  Ediel_sol  =         0.00000000
  ---------------------------------------------------
  free energy    TOTEN  =        -1.94952426 eV

  energy without entropy =       -1.94952426  energy(sigma->0) =       -1.94952426


--------------------------------------------------------------------------------------------------------




--------------------------------------- Iteration      1(   9)  ---------------------------------------


    POTLOK:  cpu time      3.8215: real time      0.5501
    SETDIJ:  cpu time      0.0311: real time      0.0044
    EDDIAG:  cpu time      0.5509: real time      0.0790
  RMM-DIIS:  cpu time      1.3922: real time      0.4435
    ORTHCH:  cpu time      0.0414: real time      0.0208
       DOS:  cpu time      0.0017: real time      0.0008
    CHARGE:  cpu time      0.2807: real time      0.0589
    MIXING:  cpu time      0.2558: real time      0.0368
    --------------------------------------------
      LOOP:  cpu time      6.3752: real time      1.1945

 eigenvalue-minimisations  :  1114
 total energy-change (2. order) : 0.2649486E-01  (-0.1453685E-01)
 number of electron      15.9999998 magnetization 
 augmentation part        2.7338400 magnetization 

 Broyden mixing:
  rms(total) = 0.36521E-01    rms(broyden)= 0.36512E-01
  rms(prec ) = 0.73980E-01
  weight for this iteration     100.00

 eigenvalues of (default mixing * dielectric matrix)
  average eigenvalue GAMMA=   1.7088
  2.3742  2.3742  1.0433  1.0433

 Free energy of the ion-electron system (eV)
  ---------------------------------------------------
  alpha Z        PSCENC =         3.62109549
  Ewald energy   TEWEN  =         9.33877718
  -Hartree energ DENC   =     -1268.22400129
  -exchange      EXHF   =         0.00000000
  -V(xc)+E(xc)   XCENC  =        75.24200575
  PAW double counting   =      1084.18555802    -1084.06163248
  entropy T*S    EENTRO =        -0.00000000
  eigenvalues    EBANDS =      -256.22762479
  atomic energy  EATOM  =      1434.20279271
  Solvation  Ediel_sol  =         0.00000000
  ---------------------------------------------------
  free energy    TOTEN  =        -1.92302940 eV

  energy without entropy =       -1.92302940  energy(sigma->0) =       -1.92302940


--------------------------------------------------------------------------------------------------------




--------------------------------------- Iteration      1(  10)  ---------------------------------------


    POTLOK:  cpu time      4.0429: real time      0.5881
    SETDIJ:  cpu time      0.0206: real time      0.0031
    EDDIAG:  cpu time      0.5431: real time      0.0782
  RMM-DIIS:  cpu time      1.2321: real time      0.3572
    ORTHCH:  cpu time      0.0415: real time      0.0210
       DOS:  cpu time      0.0011: real time      0.0005
    CHARGE:  cpu time      0.2803: real time      0.0588
    MIXING:  cpu time      0.2304: real time      0.0331
    --------------------------------------------
      LOOP:  cpu time      6.3921: real time      1.1400

 eigenvalue-minimisations  :   922
 total energy-change (2. order) :-0.2023641E-01  (-0.6011269E-02)
 number of electron      15.9999998 magnetization 
 augmentation part        2.7335549 magnetization 

 Broyden mixing:
  rms(total) = 0.20285E-01    rms(broyden)= 0.20277E-01
  rms(prec ) = 0.37957E-01
  weight for this iteration     100.00

 eigenvalues of (default mixing * dielectric matrix)
  average eigenvalue GAMMA=   1.6895
  3.2312  1.9178  0.9955  0.9955  1.3074

 Free energy of the ion-electron system (eV)
  ---------------------------------------------------
  alpha Z        PSCENC =         3.62109549
  Ewald energy   TEWEN  =         9.33877718
  -Hartree energ DENC   =     -1271.77988889
  -exchange      EXHF   =         0.00000000
  -V(xc)+E(xc)   XCENC  =        75.24857029
  PAW double counting   =      1074.78219992    -1074.70312299
  entropy T*S    EENTRO =        -0.00000000
  eigenvalues    EBANDS =      -252.65368952
  atomic energy  EATOM  =      1434.20279271
  Solvation  Ediel_sol  =         0.00000000
  ---------------------------------------------------
  free energy    TOTEN  =        -1.94326581 eV

  energy without entropy =       -1.94326581  energy(sigma->0) =       -1.94326581


--------------------------------------------------------------------------------------------------------




--------------------------------------- Iteration      1(  11)  ---------------------------------------


    POTLOK:  cpu time      3.7642: real time      0.5407
    SETDIJ:  cpu time      0.0224: real time      0.0032
    EDDIAG:  cpu time      0.5522: real time      0.0797
  RMM-DIIS:  cpu time      1.3094: real time      0.3993
    ORTHCH:  cpu time      0.0418: real time      0.0210
       DOS:  cpu time      0.0011: real time      0.0005
    CHARGE:  cpu time      0.2835: real time      0.0598
    MIXING:  cpu time      0.2345: real time      0.0336
    --------------------------------------------
      LOOP:  cpu time      6.2091: real time      1.1378

 eigenvalue-minimisations  :  1028
 total energy-change (2. order) :-0.3760991E-02  (-0.1953530E-02)
 number of electron      15.9999998 magnetization 
 augmentation part        2.7296947 magnetization 

 Broyden mixing:
  rms(total) = 0.12183E-01    rms(broyden)= 0.12183E-01
  rms(prec ) = 0.25381E-01
  weight for this iteration     100.00

 eigenvalues of (default mixing * dielectric matrix)
  average eigenvalue GAMMA=   1.7474
  3.6714  2.1725  0.8745  1.1249  1.1249  1.5162

 Free energy of the ion-electron system (eV)
  ---------------------------------------------------
  alpha Z        PSCENC =         3.62109549
  Ewald energy   TEWEN  =         9.33877718
  -Hartree energ DENC   =     -1273.88274086
  -exchange      EXHF   =         0.00000000
  -V(xc)+E(xc)   XCENC  =        75.30024933
  PAW double counting   =      1076.38390334    -1076.24884532
  entropy T*S    EENTRO =        -0.00000000
  eigenvalues    EBANDS =      -250.66225867
  atomic energy  EATOM  =      1434.20279271
  Solvation  Ediel_sol  =         0.00000000
  ---------------------------------------------------
  free energy    TOTEN  =        -1.94702680 eV

  energy without entropy =       -1.94702680  energy(sigma->0) =       -1.94702680


--------------------------------------------------------------------------------------------------------




--------------------------------------- Iteration      1(  12)  ---------------------------------------


    POTLOK:  cpu time      3.7029: real time      0.5326
    SETDIJ:  cpu time      0.0214: real time      0.0031
    EDDIAG:  cpu time      0.5476: real time      0.0788
  RMM-DIIS:  cpu time      1.3158: real time      0.3990
    ORTHCH:  cpu time      0.0411: real time      0.0207
       DOS:  cpu time      0.0021: real time      0.0011
    CHARGE:  cpu time      0.2908: real time      0.0660
    MIXING:  cpu time      0.2137: real time      0.0356
    --------------------------------------------
      LOOP:  cpu time      6.1354: real time      1.1367

 eigenvalue-minimisations  :  1023
 total energy-change (2. order) :-0.1993680E-01  (-0.1091635E-02)
 number of electron      15.9999998 magnetization 
 augmentation part        2.7305484 magnetization 

 Broyden mixing:
  rms(total) = 0.59009E-02    rms(broyden)= 0.59003E-02
  rms(prec ) = 0.12709E-01
  weight for this iteration     100.00

 eigenvalues of (default mixing * dielectric matrix)
  average eigenvalue GAMMA=   1.8634
  4.2830  2.8062  1.6376  1.2700  1.0220  1.0125  1.0125

 Free energy of the ion-electron system (eV)
  ---------------------------------------------------
  alpha Z        PSCENC =         3.62109549
  Ewald energy   TEWEN  =         9.33877718
  -Hartree energ DENC   =     -1273.79181179
  -exchange      EXHF   =         0.00000000
  -V(xc)+E(xc)   XCENC  =        75.25665670
  PAW double counting   =      1073.15757100    -1073.04607799
  entropy T*S    EENTRO =        -0.00000000
  eigenvalues    EBANDS =      -250.70596690
  atomic energy  EATOM  =      1434.20279271
  Solvation  Ediel_sol  =         0.00000000
  ---------------------------------------------------
  free energy    TOTEN  =        -1.96696361 eV

  energy without entropy =       -1.96696361  energy(sigma->0) =       -1.96696361


--------------------------------------------------------------------------------------------------------




--------------------------------------- Iteration      1(  13)  ---------------------------------------


    POTLOK:  cpu time      3.6785: real time      0.5351
    SETDIJ:  cpu time      0.0207: real time      0.0030
    EDDIAG:  cpu time      0.4903: real time      0.0805
  RMM-DIIS:  cpu time      1.3079: real time      0.3987
    ORTHCH:  cpu time      0.0411: real time      0.0206
       DOS:  cpu time      0.0019: real time      0.0010
    CHARGE:  cpu time      0.2810: real time      0.0588
    MIXING:  cpu time      0.2386: real time      0.0345
    --------------------------------------------
      LOOP:  cpu time      6.0604: real time      1.1322

 eigenvalue-minimisations  :  1023
 total energy-change (2. order) :-0.8491312E-02  (-0.6822551E-03)
 number of electron      15.9999998 magnetization 
 augmentation part        2.7316160 magnetization 

 Broyden mixing:
  rms(total) = 0.60527E-02    rms(broyden)= 0.60504E-02
  rms(prec ) = 0.98509E-02
  weight for this iteration     100.00

 eigenvalues of (default mixing * dielectric matrix)
  average eigenvalue GAMMA=   2.1442
  5.3343  3.0771  2.5476  2.0117  1.2387  1.0122  1.0122  0.9201

 Free energy of the ion-electron system (eV)
  ---------------------------------------------------
  alpha Z        PSCENC =         3.62109549
  Ewald energy   TEWEN  =         9.33877718
  -Hartree energ DENC   =     -1273.34981987
  -exchange      EXHF   =         0.00000000
  -V(xc)+E(xc)   XCENC  =        75.22168037
  PAW double counting   =      1072.27818573    -1072.16386713
  entropy T*S    EENTRO =        -0.00000000
  eigenvalues    EBANDS =      -251.12429940
  atomic energy  EATOM  =      1434.20279271
  Solvation  Ediel_sol  =         0.00000000
  ---------------------------------------------------
  free energy    TOTEN  =        -1.97545492 eV

  energy without entropy =       -1.97545492  energy(sigma->0) =       -1.97545492


--------------------------------------------------------------------------------------------------------




--------------------------------------- Iteration      1(  14)  ---------------------------------------


    POTLOK:  cpu time      3.6638: real time      0.5263
    SETDIJ:  cpu time      0.0213: real time      0.0030
    EDDIAG:  cpu time      0.5437: real time      0.0784
  RMM-DIIS:  cpu time      1.3383: real time      0.4067
    ORTHCH:  cpu time      0.0410: real time      0.0205
       DOS:  cpu time      0.0019: real time      0.0009
    CHARGE:  cpu time      0.2798: real time      0.0585
    MIXING:  cpu time      0.2576: real time      0.0371
    --------------------------------------------
      LOOP:  cpu time      6.1471: real time      1.1315

 eigenvalue-minimisations  :  1058
 total energy-change (2. order) :-0.4773368E-02  (-0.5096479E-03)
 number of electron      15.9999998 magnetization 
 augmentation part        2.7303207 magnetization 

 Broyden mixing:
  rms(total) = 0.66702E-02    rms(broyden)= 0.66671E-02
  rms(prec ) = 0.86076E-02
  weight for this iteration     100.00

 eigenvalues of (default mixing * dielectric matrix)
  average eigenvalue GAMMA=   2.0694
  5.7443  3.4734  2.5284  1.4171  1.4171  1.0637  1.0637  0.9586  0.9586

 Free energy of the ion-electron system (eV)
  ---------------------------------------------------
  alpha Z        PSCENC =         3.62109549
  Ewald energy   TEWEN  =         9.33877718
  -Hartree energ DENC   =     -1273.45949054
  -exchange      EXHF   =         0.00000000
  -V(xc)+E(xc)   XCENC  =        75.21872493
  PAW double counting   =      1073.25042778    -1073.13977574
  entropy T*S    EENTRO =        -0.00000000
  eigenvalues    EBANDS =      -251.01278011
  atomic energy  EATOM  =      1434.20279271
  Solvation  Ediel_sol  =         0.00000000
  ---------------------------------------------------
  free energy    TOTEN  =        -1.98022829 eV

  energy without entropy =       -1.98022829  energy(sigma->0) =       -1.98022829


--------------------------------------------------------------------------------------------------------




--------------------------------------- Iteration      1(  15)  ---------------------------------------


    POTLOK:  cpu time      3.6641: real time      0.5259
    SETDIJ:  cpu time      0.0208: real time      0.0030
    EDDIAG:  cpu time      0.5402: real time      0.0782
  RMM-DIIS:  cpu time      1.2746: real time      0.3739
    ORTHCH:  cpu time      0.0409: real time      0.0205
       DOS:  cpu time      0.0027: real time      0.0014
    CHARGE:  cpu time      0.2783: real time      0.0584
    MIXING:  cpu time      0.2505: real time      0.0360
    --------------------------------------------
      LOOP:  cpu time      6.0722: real time      1.0974

 eigenvalue-minimisations  :   958
 total energy-change (2. order) :-0.3146461E-03  (-0.1717157E-03)
 number of electron      15.9999998 magnetization 
 augmentation part        2.7305940 magnetization 

 Broyden mixing:
  rms(total) = 0.24822E-02    rms(broyden)= 0.24792E-02
  rms(prec ) = 0.34404E-02
  weight for this iteration     100.00

 eigenvalues of (default mixing * dielectric matrix)
  average eigenvalue GAMMA=   2.1464
  6.2916  3.8556  2.5941  1.9128  1.9128  1.0294  1.0294  1.0511  1.0511  0.7356

 Free energy of the ion-electron system (eV)
  ---------------------------------------------------
  alpha Z        PSCENC =         3.62109549
  Ewald energy   TEWEN  =         9.33877718
  -Hartree energ DENC   =     -1273.38184881
  -exchange      EXHF   =         0.00000000
  -V(xc)+E(xc)   XCENC  =        75.21513694
  PAW double counting   =      1073.40312460    -1073.27741737
  entropy T*S    EENTRO =        -0.00000000
  eigenvalues    EBANDS =      -251.10220369
  atomic energy  EATOM  =      1434.20279271
  Solvation  Ediel_sol  =         0.00000000
  ---------------------------------------------------
  free energy    TOTEN  =        -1.98054293 eV

  energy without entropy =       -1.98054293  energy(sigma->0) =       -1.98054293


--------------------------------------------------------------------------------------------------------




--------------------------------------- Iteration      1(  16)  ---------------------------------------


    POTLOK:  cpu time      3.6898: real time      0.5302
    SETDIJ:  cpu time      0.0224: real time      0.0033
    EDDIAG:  cpu time      0.5481: real time      0.0788
  RMM-DIIS:  cpu time      1.3222: real time      0.4002
    ORTHCH:  cpu time      0.0409: real time      0.0205
       DOS:  cpu time      0.0025: real time      0.0012
    CHARGE:  cpu time      0.2793: real time      0.0586
    MIXING:  cpu time      0.2560: real time      0.0368
    --------------------------------------------
      LOOP:  cpu time      6.1610: real time      1.1296

 eigenvalue-minimisations  :  1029
 total energy-change (2. order) :-0.7159436E-03  (-0.6373250E-04)
 number of electron      15.9999998 magnetization 
 augmentation part        2.7306379 magnetization 

 Broyden mixing:
  rms(total) = 0.18740E-02    rms(broyden)= 0.18737E-02
  rms(prec ) = 0.25139E-02
  weight for this iteration     100.00

 eigenvalues of (default mixing * dielectric matrix)
  average eigenvalue GAMMA=   2.1935
  6.9431  4.3242  3.0568  1.7326  1.7326  1.2012  1.2012  1.0641  1.0641  0.9044
  0.9044

 Free energy of the ion-electron system (eV)
  ---------------------------------------------------
  alpha Z        PSCENC =         3.62109549
  Ewald energy   TEWEN  =         9.33877718
  -Hartree energ DENC   =     -1273.36647068
  -exchange      EXHF   =         0.00000000
  -V(xc)+E(xc)   XCENC  =        75.21518266
  PAW double counting   =      1073.31631046    -1073.18888375
  entropy T*S    EENTRO =        -0.00000000
  eigenvalues    EBANDS =      -251.12006296
  atomic energy  EATOM  =      1434.20279271
  Solvation  Ediel_sol  =         0.00000000
  ---------------------------------------------------
  free energy    TOTEN  =        -1.98125888 eV

  energy without entropy =       -1.98125888  energy(sigma->0) =       -1.98125888


--------------------------------------------------------------------------------------------------------




--------------------------------------- Iteration      1(  17)  ---------------------------------------


    POTLOK:  cpu time      3.7429: real time      0.5375
    SETDIJ:  cpu time      0.0214: real time      0.0031
    EDDIAG:  cpu time      0.5486: real time      0.0788
  RMM-DIIS:  cpu time      1.3209: real time      0.3981
    ORTHCH:  cpu time      0.0409: real time      0.0205
       DOS:  cpu time      0.0022: real time      0.0011
    CHARGE:  cpu time      0.2807: real time      0.0586
    MIXING:  cpu time      0.2610: real time      0.0375
    --------------------------------------------
      LOOP:  cpu time      6.2186: real time      1.1351

 eigenvalue-minimisations  :  1037
 total energy-change (2. order) :-0.1309549E-03  (-0.2332387E-04)
 number of electron      15.9999998 magnetization 
 augmentation part        2.7306475 magnetization 

 Broyden mixing:
  rms(total) = 0.90687E-03    rms(broyden)= 0.90679E-03
  rms(prec ) = 0.12244E-02
  weight for this iteration     100.00

 eigenvalues of (default mixing * dielectric matrix)
  average eigenvalue GAMMA=   2.2031
  7.5150  4.5780  3.3424  1.8876  1.8876  1.2631  1.2631  1.0717  1.0717  0.9421
  0.9421  0.6723

 Free energy of the ion-electron system (eV)
  ---------------------------------------------------
  alpha Z        PSCENC =         3.62109549
  Ewald energy   TEWEN  =         9.33877718
  -Hartree energ DENC   =     -1273.34825045
  -exchange      EXHF   =         0.00000000
  -V(xc)+E(xc)   XCENC  =        75.21372318
  PAW double counting   =      1073.21393347    -1073.08714195
  entropy T*S    EENTRO =        -0.00000000
  eigenvalues    EBANDS =      -251.13631945
  atomic energy  EATOM  =      1434.20279271
  Solvation  Ediel_sol  =         0.00000000
  ---------------------------------------------------
  free energy    TOTEN  =        -1.98138983 eV

  energy without entropy =       -1.98138983  energy(sigma->0) =       -1.98138983


--------------------------------------------------------------------------------------------------------




--------------------------------------- Iteration      1(  18)  ---------------------------------------


    POTLOK:  cpu time      3.7753: real time      0.5430
    SETDIJ:  cpu time      0.0213: real time      0.0030
    EDDIAG:  cpu time      0.5463: real time      0.0783
  RMM-DIIS:  cpu time      1.4146: real time      0.4450
    ORTHCH:  cpu time      0.0410: real time      0.0205
       DOS:  cpu time      0.0024: real time      0.0012
    CHARGE:  cpu time      0.2799: real time      0.0586
    MIXING:  cpu time      0.2677: real time      0.0384
    --------------------------------------------
      LOOP:  cpu time      6.3484: real time      1.1881

 eigenvalue-minimisations  :  1113
 total energy-change (2. order) :-0.5778981E-04  (-0.9979980E-05)
 number of electron      15.9999998 magnetization 
 augmentation part        2.7305430 magnetization 

 Broyden mixing:
  rms(total) = 0.52567E-03    rms(broyden)= 0.52535E-03
  rms(prec ) = 0.72533E-03
  weight for this iteration     100.00

 eigenvalues of (default mixing * dielectric matrix)
  average eigenvalue GAMMA=   2.2671
  7.8133  4.8192  3.5405  2.3596  2.3596  1.6323  1.1751  1.1751  0.9530  0.9530
  0.8735  0.9089  0.9089

 Free energy of the ion-electron system (eV)
  ---------------------------------------------------
  alpha Z        PSCENC =         3.62109549
  Ewald energy   TEWEN  =         9.33877718
  -Hartree energ DENC   =     -1273.33388126
  -exchange      EXHF   =         0.00000000
  -V(xc)+E(xc)   XCENC  =        75.21328394
  PAW double counting   =      1073.14589305    -1073.01918804
  entropy T*S    EENTRO =        -0.00000000
  eigenvalues    EBANDS =      -251.15022069
  atomic energy  EATOM  =      1434.20279271
  Solvation  Ediel_sol  =         0.00000000
  ---------------------------------------------------
  free energy    TOTEN  =        -1.98144762 eV

  energy without entropy =       -1.98144762  energy(sigma->0) =       -1.98144762


--------------------------------------------------------------------------------------------------------




--------------------------------------- Iteration      1(  19)  ---------------------------------------


    POTLOK:  cpu time      3.8162: real time      0.5485
    SETDIJ:  cpu time      0.0214: real time      0.0031
    EDDIAG:  cpu time      0.5438: real time      0.0785
  RMM-DIIS:  cpu time      1.2728: real time      0.3750
    ORTHCH:  cpu time      0.0453: real time      0.0247
       DOS:  cpu time      0.0006: real time      0.0003
    CHARGE:  cpu time      0.2796: real time      0.0586
    MIXING:  cpu time      0.2739: real time      0.0394
    --------------------------------------------
      LOOP:  cpu time      6.2537: real time      1.1280

 eigenvalue-minimisations  :   966
 total energy-change (2. order) :-0.3825835E-04  (-0.3970169E-05)
 number of electron      15.9999998 magnetization 
 augmentation part        2.7306311 magnetization 

 Broyden mixing:
  rms(total) = 0.47069E-03    rms(broyden)= 0.47066E-03
  rms(prec ) = 0.59786E-03
  weight for this iteration     100.00

 eigenvalues of (default mixing * dielectric matrix)
  average eigenvalue GAMMA=   2.2587
  7.7377  4.9095  3.4358  2.7812  1.9626  1.9626  1.9835  1.1538  1.1538  0.9516
  0.9516  0.9809  0.8761  0.7811

 Free energy of the ion-electron system (eV)
  ---------------------------------------------------
  alpha Z        PSCENC =         3.62109549
  Ewald energy   TEWEN  =         9.33877718
  -Hartree energ DENC   =     -1273.29848727
  -exchange      EXHF   =         0.00000000
  -V(xc)+E(xc)   XCENC  =        75.21149312
  PAW double counting   =      1073.06908718    -1072.94252779
  entropy T*S    EENTRO =        -0.00000000
  eigenvalues    EBANDS =      -251.18371649
  atomic energy  EATOM  =      1434.20279271
  Solvation  Ediel_sol  =         0.00000000
  ---------------------------------------------------
  free energy    TOTEN  =        -1.98148588 eV

  energy without entropy =       -1.98148588  energy(sigma->0) =       -1.98148588


--------------------------------------------------------------------------------------------------------




--------------------------------------- Iteration      1(  20)  ---------------------------------------


    POTLOK:  cpu time      3.8307: real time      0.5514
    SETDIJ:  cpu time      0.0217: real time      0.0031
    EDDIAG:  cpu time      0.5448: real time      0.0781
  RMM-DIIS:  cpu time      1.2339: real time      0.3547
    ORTHCH:  cpu time      0.0409: real time      0.0205
       DOS:  cpu time      0.0022: real time      0.0011
    CHARGE:  cpu time      0.2784: real time      0.0585
    MIXING:  cpu time      0.2791: real time      0.0403
    --------------------------------------------
      LOOP:  cpu time      6.2316: real time      1.1076

 eigenvalue-minimisations  :   898
 total energy-change (2. order) :-0.1711153E-04  (-0.2314163E-05)
 number of electron      15.9999998 magnetization 
 augmentation part        2.7304520 magnetization 

 Broyden mixing:
  rms(total) = 0.29877E-03    rms(broyden)= 0.29853E-03
  rms(prec ) = 0.37140E-03
  weight for this iteration     100.00

 eigenvalues of (default mixing * dielectric matrix)
  average eigenvalue GAMMA=   2.2873
  8.1436  5.4700  4.1864  2.6512  2.6512  1.8742  1.7011  1.1354  1.1354  1.1308
  0.9709  0.9709  0.8745  0.7073  0.7073

 Free energy of the ion-electron system (eV)
  ---------------------------------------------------
  alpha Z        PSCENC =         3.62109549
  Ewald energy   TEWEN  =         9.33877718
  -Hartree energ DENC   =     -1273.31157350
  -exchange      EXHF   =         0.00000000
  -V(xc)+E(xc)   XCENC  =        75.21251129
  PAW double counting   =      1073.11644135    -1072.98998019
  entropy T*S    EENTRO =        -0.00000000
  eigenvalues    EBANDS =      -251.17156733
  atomic energy  EATOM  =      1434.20279271
  Solvation  Ediel_sol  =         0.00000000
  ---------------------------------------------------
  free energy    TOTEN  =        -1.98150299 eV

  energy without entropy =       -1.98150299  energy(sigma->0) =       -1.98150299


--------------------------------------------------------------------------------------------------------




--------------------------------------- Iteration      1(  21)  ---------------------------------------


    POTLOK:  cpu time      3.8211: real time      0.5495
    SETDIJ:  cpu time      0.0213: real time      0.0030
    EDDIAG:  cpu time      0.5450: real time      0.0784
  RMM-DIIS:  cpu time      1.1729: real time      0.3243
    ORTHCH:  cpu time      0.0411: real time      0.0206
       DOS:  cpu time      0.0024: real time      0.0012
    CHARGE:  cpu time      0.2833: real time      0.0592
    MIXING:  cpu time      0.2882: real time      0.0412
    --------------------------------------------
      LOOP:  cpu time      6.1752: real time      1.0774

 eigenvalue-minimisations  :   795
 total energy-change (2. order) :-0.1064611E-04  (-0.1285991E-05)
 number of electron      15.9999998 magnetization 
 augmentation part        2.7305123 magnetization 

 Broyden mixing:
  rms(total) = 0.12057E-03    rms(broyden)= 0.12044E-03
  rms(prec ) = 0.15389E-03
  weight for this iteration     100.00

 eigenvalues of (default mixing * dielectric matrix)
  average eigenvalue GAMMA=   2.4147
  8.5063  6.4969  4.7482  3.3845  2.5986  1.9181  1.9181  1.2616  1.2616  1.0968
  1.0968  0.9553  0.9284  0.9284  0.7676  0.7676

 Free energy of the ion-electron system (eV)
  ---------------------------------------------------
  alpha Z        PSCENC =         3.62109549
  Ewald energy   TEWEN  =         9.33877718
  -Hartree energ DENC   =     -1273.30070548
  -exchange      EXHF   =         0.00000000
  -V(xc)+E(xc)   XCENC  =        75.21199328
  PAW double counting   =      1073.13233826    -1073.00460988
  entropy T*S    EENTRO =        -0.00000000
  eigenvalues    EBANDS =      -251.18319521
  atomic energy  EATOM  =      1434.20279271
  Solvation  Ediel_sol  =         0.00000000
  ---------------------------------------------------
  free energy    TOTEN  =        -1.98151364 eV

  energy without entropy =       -1.98151364  energy(sigma->0) =       -1.98151364


--------------------------------------------------------------------------------------------------------




--------------------------------------- Iteration      1(  22)  ---------------------------------------


    POTLOK:  cpu time      3.8436: real time      0.5526
    SETDIJ:  cpu time      0.0213: real time      0.0031
    EDDIAG:  cpu time      0.5501: real time      0.0789
  RMM-DIIS:  cpu time      1.1201: real time      0.3019
    ORTHCH:  cpu time      0.0412: real time      0.0206
       DOS:  cpu time      0.0019: real time      0.0009
    CHARGE:  cpu time      0.2830: real time      0.0592
    MIXING:  cpu time      0.2928: real time      0.0424
    --------------------------------------------
      LOOP:  cpu time      6.1539: real time      1.0595

 eigenvalue-minimisations  :   763
 total energy-change (2. order) :-0.5227381E-05  (-0.6685153E-06)
 number of electron      15.9999998 magnetization 
 augmentation part        2.7304418 magnetization 

 Broyden mixing:
  rms(total) = 0.10965E-03    rms(broyden)= 0.10960E-03
  rms(prec ) = 0.13705E-03
  weight for this iteration     100.00

 eigenvalues of (default mixing * dielectric matrix)
  average eigenvalue GAMMA=   2.3540
  8.5560  6.7184  4.7582  3.3971  2.7148  1.9464  1.9464  1.3658  1.3658  1.1242
  1.1242  0.9535  0.9535  0.9188  0.7739  0.7739  0.6269

 Free energy of the ion-electron system (eV)
  ---------------------------------------------------
  alpha Z        PSCENC =         3.62109549
  Ewald energy   TEWEN  =         9.33877718
  -Hartree energ DENC   =     -1273.30205575
  -exchange      EXHF   =         0.00000000
  -V(xc)+E(xc)   XCENC  =        75.21217146
  PAW double counting   =      1073.14103221    -1073.01289293
  entropy T*S    EENTRO =        -0.00000000
  eigenvalues    EBANDS =      -251.18243924
  atomic energy  EATOM  =      1434.20279271
  Solvation  Ediel_sol  =         0.00000000
  ---------------------------------------------------
  free energy    TOTEN  =        -1.98151887 eV

  energy without entropy =       -1.98151887  energy(sigma->0) =       -1.98151887


--------------------------------------------------------------------------------------------------------




--------------------------------------- Iteration      1(  23)  ---------------------------------------


    POTLOK:  cpu time      3.8483: real time      0.5532
    SETDIJ:  cpu time      0.0214: real time      0.0031
    EDDIAG:  cpu time      0.5500: real time      0.0791
  RMM-DIIS:  cpu time      1.1067: real time      0.2929
    ORTHCH:  cpu time      0.0411: real time      0.0206
       DOS:  cpu time      0.0017: real time      0.0009
    CHARGE:  cpu time      0.3444: real time      0.0679
    MIXING:  cpu time      0.2987: real time      0.0431
    --------------------------------------------
      LOOP:  cpu time      6.2123: real time      1.0607

 eigenvalue-minimisations  :   733
 total energy-change (2. order) :-0.1845017E-05  (-0.3102576E-06)
 number of electron      15.9999998 magnetization 
 augmentation part        2.7304621 magnetization 

 Broyden mixing:
  rms(total) = 0.41849E-04    rms(broyden)= 0.41827E-04
  rms(prec ) = 0.53238E-04
  weight for this iteration     100.00

 eigenvalues of (default mixing * dielectric matrix)
  average eigenvalue GAMMA=   2.2281
  8.4398  6.6420  4.7072  3.4010  2.7133  1.9344  1.9344  1.3674  1.3674  1.1249
  1.1249  0.9546  0.9546  0.9128  0.7747  0.7747  0.6610  0.3172

 Free energy of the ion-electron system (eV)
  ---------------------------------------------------
  alpha Z        PSCENC =         3.62109549
  Ewald energy   TEWEN  =         9.33877718
  -Hartree energ DENC   =     -1273.29840774
  -exchange      EXHF   =         0.00000000
  -V(xc)+E(xc)   XCENC  =        75.21196505
  PAW double counting   =      1073.12759581    -1072.99935800
  entropy T*S    EENTRO =        -0.00000000
  eigenvalues    EBANDS =      -251.18598121
  atomic energy  EATOM  =      1434.20279271
  Solvation  Ediel_sol  =         0.00000000
  ---------------------------------------------------
  free energy    TOTEN  =        -1.98152071 eV

  energy without entropy =       -1.98152071  energy(sigma->0) =       -1.98152071


--------------------------------------------------------------------------------------------------------




--------------------------------------- Iteration      1(  24)  ---------------------------------------


    POTLOK:  cpu time      3.8333: real time      0.5508
    SETDIJ:  cpu time      0.0213: real time      0.0030
    EDDIAG:  cpu time      0.5494: real time      0.0794
  RMM-DIIS:  cpu time      1.0985: real time      0.2889
    ORTHCH:  cpu time      0.0409: real time      0.0205
       DOS:  cpu time      0.0022: real time      0.0011
    --------------------------------------------
      LOOP:  cpu time      5.5447: real time      0.9437

 eigenvalue-minimisations  :   700
 total energy-change (2. order) :-0.5766947E-06  (-0.1611184E-06)
 number of electron      15.9999998 magnetization 
 augmentation part        2.7304621 magnetization 

 Free energy of the ion-electron system (eV)
  ---------------------------------------------------
  alpha Z        PSCENC =         3.62109549
  Ewald energy   TEWEN  =         9.33877718
  -Hartree energ DENC   =     -1273.29904041
  -exchange      EXHF   =         0.00000000
  -V(xc)+E(xc)   XCENC  =        75.21200756
  PAW double counting   =      1073.12853347    -1073.00018574
  entropy T*S    EENTRO =        -0.00000000
  eigenvalues    EBANDS =      -251.18550154
  atomic energy  EATOM  =      1434.20279271
  Solvation  Ediel_sol  =         0.00000000
  ---------------------------------------------------
  free energy    TOTEN  =        -1.98152129 eV

  energy without entropy =       -1.98152129  energy(sigma->0) =       -1.98152129


--------------------------------------------------------------------------------------------------------




 average (electrostatic) potential at core
  the test charge radii are     1.1045  0.7167
  (the norm of the test charge is              1.0000)
       1 -38.9614       2 -82.4085
 
 
 
 E-fermi :  -4.3472     XC(G=0):  -1.0505     alpha+bet : -0.4390

 Fermi energy:        -4.3471907942

 k-point     1 :       0.0000    0.0000    0.0000
  band No.  band energies     occupation 
      1     -33.2587      2.00000
      2     -26.0630      2.00000
      3     -15.8618      2.00000
      4     -15.8618      2.00000
      5     -15.4255      2.00000
      6      -7.2407      2.00000
      7      -7.2405      2.00000
      8      -4.6404      2.00000
      9      -0.8410      0.00000
     10       0.8749      0.00000
     11       0.9400      0.00000
     12       1.1558      0.00000

 k-point     2 :       0.2500    0.0000    0.0000
  band No.  band energies     occupation 
      1     -33.2587      2.00000
      2     -26.0630      2.00000
      3     -15.8618      2.00000
      4     -15.8618      2.00000
[...]
  212                  map_backward                          0.025191                 10   8
  213                    map_gather                            0.015938                5   9
  214        forloc                                0.335411                            5   3
  215        fornl                                 0.375208                            5   3
  216          phase                                 0.299842                         45   4
  217          m_sumb_d                              0.023853                         10   4
  218        fordep                                0.074937                            5   3
  219          setdij_                               0.074816                         30   4
  220        setdij_                               0.244727                          100   3
  221        set_dd_magatom                        0.000019                            5   3
  222        set_dd_paw                            0.008111                            5   3
  223          m_sumb_d                              0.008022                         35   4
  224        strkin                                0.012377                            5   3
  225          m_sumb_d                              0.000282                          5   4
  226        strelo                                0.050759                            5   3
  227        strenl                                6.593679                            5   3
  228          spher                                 6.194535                         95   4
  229          phase                                 0.053668                        405   4
  230          proj1_acc                             0.027650                       4860   4
  231          m_sumb_d                              0.013580                          5   4
  232        fft3d_mpi                             0.803648                           55   3
  233          fftbrc_mpi                            0.657042                         55   4
  234            fftbas_plan_mpi                       0.656958                       55   5
  235              dfftw_execute                         0.386440                    165   6
  236              map_forward                           0.113651                     50   6
  237                map_scatter                           0.061208                   25   7
  238              map_backward                          0.151254                     60   6
  239                map_gather                            0.095371                   30   7
  240        ggaall_grid                           0.501736                            5   3
  241        forhar                                0.502436                           10   3
  242        strehar                               0.028478                            5   3
  243        chggra                                0.059387                            5   3
  244          fft3d_mpi                             0.039066                         15   4
  245            fftbrc_mpi                            0.033152                       15   5
  246              fftbas_plan_mpi                       0.033142                     15   6
  247                map_forward                           0.000130                   20   7
  248                  map_scatter                           0.000028                 10   8
  249                map_backward                          0.000048                   10   7
  250                  map_gather                            0.000018                  5   8
  251          pothar                                0.002999                          5   4
  252        brmix                                 0.310069                            5   3
  253          brpre                                 0.002339                          5   4
  254          setg0                                 0.079176                          5   4
  255          broyd                                 0.152406                          5   4
  256            brget                                 0.015665                      645   5
  257            brsav                                 0.008496                      147   5
  258          m_bcast_z                             0.047304                          5   4
  259          m_bcast_d                             0.001421                          5   4
  260        m_bcast_d                             0.000102                           10   3
  261      potlok                                2.762508                              5   2
  262        fft3d_mpi                             0.887742                           65   3
  263          fftbrc_mpi                            0.720155                         65   4
  264            fftbas_plan_mpi                       0.720057                       65   5
  265              dfftw_execute                         0.421689                    195   6
  266              map_forward                           0.137455                     70   6
  267                map_scatter                           0.073739                   35   7
  268              map_backward                          0.154327                     60   6
  269                map_gather                            0.094370                   30   7
  270        ggaall_grid                           0.503228                            5   3
  271        pothar                                0.083500                            5   3
  272      potlok_metagga                        0.000002                              5   2
  273      set_dd_magatom                        0.000018                              5   2
  274      set_dd_paw                            0.024611                              5   2
  275        m_sumb_d                              0.024525                           35   3
  276      wavpre_noio                           0.838562                              4   2
  277        stufak                                0.031942                            4   3
  278      densta                                0.000174                              1   2
  279        m_sumb_d                              0.000044                            6   3
 
 Flat profile
 ============
 
             routine name                   CPU           calls
 ---------------------------------------------------------------
 potlok                                 37.132114         145
 i2                                     15.008543        9612
 ggaall_grid                            13.927243         150
 dfftw_execute                          13.879304        6675
 hamiltmu                               10.733489       10218
 eddiag                                  9.068384         135
 spher                                   6.254642          96
 m_sumb_d                                6.231358        3508
 i3                                      6.169536        9612
 fft3d_mpi                               5.536304       55147
 newband                                 4.933404       11514
 eddav                                   4.531389           9
 total_time                              3.442859           1
 map_gather                              3.321725        1185
 orth1                                   3.297810        4293
 projmu_acc                              3.238490       10056
 fft3d                                   2.928871      130526
 choleski                                2.837846        1260
 broyd                                   2.610019         140
 pothar                                  2.425608         150
 map_scatter                             2.224151        1055
 setg0                                   2.186587         145
 cnorma                                  2.180136      147426
 map_backward                            1.968052        2370
 map_forward                             1.935807        2110
 augmentation_charge                     1.787514         140
 m_bcast_z                               1.450827         295
 w1_gemv                                 1.347112      198012
 eccp                                    1.197530       64694
 force_and_stress                        1.092141           5
 w1_copy                                 0.891730      114980
 elmin                                   0.818474           5
 w1_dscal                                0.818211       94944
 wavpre_noio                             0.806621           4
 brmix                                   0.785066         140
 setdij_                                 0.732698         276
 w1_dot                                  0.674140       14518
 lincom                                  0.639551        2556
 overl1                                  0.577883       87830
 phase                                   0.553332        1796
 fftwav                                  0.506542       77619
 lapack                                  0.502832         606
 forhar                                  0.502436          10
 w1_gaxpy                                0.477157       65737
 w1_daxpy                                0.472631       69250
 set_charge                              0.458848         140
 eddrmm                                  0.452538         135
 forloc                                  0.335411           5
 brget                                   0.326130       13721
 strenl                                  0.304245           5
 init_hip                                0.285851           1
 fftbas_plan_mpi                         0.269109        2240
 apply_precond                           0.250956       82926
 soft_charge                             0.241908         140
 brsav                                   0.218318        3504
 eccp_nl                                 0.201569       98284
 kinhamil                                0.191926       52907
 fftext_mpi                              0.190278       52907
 zhegv                                   0.190277       20107
 vhamil                                  0.188704       52907
 depsum                                  0.130207         140
 vnlac0_acc                              0.128943       38327
 fftwav_mpi                              0.116630       77619
 proall                                  0.115959           5
 setup_precond                           0.097339       15552
 orthch                                  0.097123         140
 brpre                                   0.065819         140
 overl                                   0.065523        8783
 fornl                                   0.051513           5
 strelo                                  0.050759           5
 proj                                    0.046098          45
 stufak                                  0.042468           5
 m_bcast_d                               0.042125         171
 ggemm                                   0.033312         768
 proj1_acc                               0.031373        5400
 pw_charge                               0.028928       10195
 strehar                                 0.028478           5
 fft_gq                                  0.028304         140
 densta                                  0.023241         145
 i1                                      0.018804        9612
 chggra                                  0.017322           5
 hamilt_local                            0.013555       14580
 w1_projall                              0.013123       10056
 strkin                                  0.012095           5
 inisym                                  0.011214           1
 truncate_high_frequency_w1              0.007648       53879
 hip_hipfft_makeplan                     0.006592           6
 brgrid                                  0.005279           1
 fftbrc_mpi                              0.003186        2240
 set_dd_paw                              0.002905         150
 fewald                                  0.001506           5
 vectorpot                               0.000894         141
 set_dd_magatom                          0.000580         150
 shift_bands_between_low_high            0.000448        1215
 hip_init_hipblas                        0.000389           1
 fordep                                  0.000121           5
 rsp                                     0.000118           5
 potlok_metagga                          0.000097         145
 rcp                                     0.000073           5
 hip_init_rocsolver                      0.000067           1
 crpa_reader                             0.000051           1
 rotate_active_occupied_orbital          0.000010           5
 posmap                                  0.000009           2
 hip_hipfft_makeplans                    0.000006           3
 redis_pw_over_bands                     0.000000           5
 ---------------------------------------------------------------
  summed up times    190.084398984909     
 
 Accumulative profile
 ====================
 
             routine name                   CPU           calls
 ---------------------------------------------------------------
 total_time                            190.084399           1
 elmin                                 167.735495           5
 potlok                                 78.765749         145
 eddrmm                                 54.063568         135
 fft3d_mpi                              30.287925       55147
 fftbrc_mpi                             23.601334        2240
 fftbas_plan_mpi                        23.598148        2240
 i2                                     19.612134        9612
 ggaall_grid                            13.927243         150
 dfftw_execute                          13.879304        6675
 hamiltmu                               12.411271       10218
 force_and_stress                       11.280439           5
 i3                                     10.896166        9612
 eddiag                                 10.627494         135
 set_charge                              8.145145         140
 brmix                                   7.680978         140
 eddav                                   7.082807           9
 strenl                                  6.593679           5
 spher                                   6.254642          96
 m_sumb_d                                6.231358        3508
 orthch                                  6.138002         140
 newband                                 6.004277       11514
 map_backward                            5.289777        2370
 map_forward                             4.159958        2110
 augmentation_charge                     3.870463         140
 soft_charge                             3.613089         140
 map_gather                              3.321725        1185
 orth1                                   3.297810        4293
 w1_projall                              3.251613       10056
 projmu_acc                              3.238490       10056
 broyd                                   3.154466         140
 fft3d                                   2.928871      130526
 choleski                                2.837846        1260
 pothar                                  2.425608         150
 fftwav_mpi                              2.401757       77619
 cnorma                                  2.381704      147426
 fftwav                                  2.285126       77619
 map_scatter                             2.224151        1055
 setg0                                   2.186587         145
 w1_gemv                                 1.665380      198012
 kinhamil                                1.562790       52907
 m_bcast_z                               1.450827         295
 fftext_mpi                              1.370865       52907
 eccp                                    1.197530       64694
 w1_copy                                 0.891730      114980
 wavpre_noio                             0.838562           4
 w1_dscal                                0.818211       94944
 setdij_                                 0.732698         276
 w1_dot                                  0.674140       14518
 set_dd_paw                              0.660371         150
 lincom                                  0.639551        2556
 overl1                                  0.577883       87830
 phase                                   0.553332        1796
 lapack                                  0.502832         606
 forhar                                  0.502436          10
 w1_gaxpy                                0.477157       65737
 hamilt_local                            0.475825       14580
 w1_daxpy                                0.472631       69250
 fornl                                   0.375208           5
 fft_gq                                  0.345554         140
 forloc                                  0.335411           5
 brget                                   0.326130       13721
 init_hip                                0.285851           1
 i1                                      0.253432        9612
 apply_precond                           0.250956       82926
 brsav                                   0.218318        3504
 depsum                                  0.202745         140
 eccp_nl                                 0.201569       98284
 zhegv                                   0.190277       20107
 vhamil                                  0.188704       52907
 proall                                  0.179599           5
 vnlac0_acc                              0.128943       38327
 setup_precond                           0.097339       15552
 fordep                                  0.074937           5
 brpre                                   0.065819         140
 overl                                   0.065523        8783
 chggra                                  0.059387           5
 strelo                                  0.050759           5
 proj                                    0.049822          45
 stufak                                  0.042468           5
 m_bcast_d                               0.042125         171
 ggemm                                   0.033312         768
 proj1_acc                               0.031373        5400
 densta                                  0.031042         145
 pw_charge                               0.028928       10195
 strehar                                 0.028478           5
 strkin                                  0.012377           5
 inisym                                  0.011223           1
 truncate_high_frequency_w1              0.007648       53879
 hip_hipfft_makeplans                    0.006598           3
 hip_hipfft_makeplan                     0.006592           6
 brgrid                                  0.005279           1
 fewald                                  0.001916           5
 vectorpot                               0.000894         141
 set_dd_magatom                          0.000580         150
 shift_bands_between_low_high            0.000448        1215
 hip_init_hipblas                        0.000389           1
 rsp                                     0.000118           5
 potlok_metagga                          0.000097         145
 rcp                                     0.000073           5
 hip_init_rocsolver                      0.000067           1
 crpa_reader                             0.000051           1
 rotate_active_occupied_orbital          0.000010           5
 posmap                                  0.000009           2
 redis_pw_over_bands                     0.000000           5
 ---------------------------------------------------------------
 
Profiling took   0.353867  0.203153  0.002867  0.002743 seconds
Profiling took   0.260737 seconds
