srun: ROUTE: split_hostlist: hl=b01r3n19 tree_width 0
 running on    4 total cores
 distrk:  each k-point on    1 cores,    4 groups
 distr:  one band on    1 cores,    1 groups
 HIP runtime initialized ...    4 DCUs will be used
 Created    4 streams on each DCU
 vasp.6.3.2 27Jun22 (build Mar 15 2023 15:45:48) complex                        
  
 POSCAR found type information on POSCAR K F 
 POSCAR found :  2 types and       2 ions
 Reading from existing POTCAR
 scaLAPACK will be used selectively (only on CPU)
 Reading from existing POTCAR
 LDA part: xc-table for Pade appr. of Perdew
 POSCAR found type information on POSCAR K F 
 POSCAR found :  2 types and       2 ions
 -----------------------------------------------------------------------------
|                                                                             |
|           W    W    AA    RRRRR   N    N  II  N    N   GGGG   !!!           |
|           W    W   A  A   R    R  NN   N  II  NN   N  G    G  !!!           |
|           W    W  A    A  R    R  N N  N  II  N N  N  G       !!!           |
|           W WW W  AAAAAA  RRRRR   N  N N  II  N  N N  G  GGG   !            |
|           WW  WW  A    A  R   R   N   NN  II  N   NN  G    G                |
|           W    W  A    A  R    R  N    N  II  N    N   GGGG   !!!           |
|                                                                             |
|     The requested file  could not be found or opened for reading            |
|     k-point information. Automatic k-point generation is used as a          |
|     fallback, which may lead to unwanted results.                           |
|                                                                             |
 -----------------------------------------------------------------------------

 Optimize memory usage for KPAR
 INCAR ok, starting setup
 POSCAR ok, starting setup
 FFT: planning ... GRIDC
 FFT: planning ... GRID_SOFT
 FFT: planning ... GRID
 WAVECAR not read
 WARNING: chargedensity file is incomplete
 entering main loop
       N       E                     dE             d eps       ncg     rms          rms(c)
DAV:   1     0.103360221213E+03    0.10336E+03   -0.56663E+03  1376   0.808E+02
DAV:   2     0.628877262012E+01   -0.97071E+02   -0.94372E+02  1576   0.179E+02
DAV:   3    -0.444791372116E+01   -0.10737E+02   -0.10546E+02  1076   0.699E+01
DAV:   4    -0.485096510658E+01   -0.40305E+00   -0.40249E+00  1332   0.126E+01
DAV:   5    -0.485805406320E+01   -0.70890E-02   -0.70885E-02  1072   0.173E+00    0.854E+00
RMM:   6    -0.228423698676E+01    0.25738E+01   -0.90259E+00  1152   0.214E+01    0.227E+00
RMM:   7    -0.210011605642E+01    0.18412E+00   -0.21152E+00  1188   0.768E+00    0.177E+00
RMM:   8    -0.194768465294E+01    0.15243E+00   -0.39820E-01  1152   0.531E+00    0.650E-01
RMM:   9    -0.192274652705E+01    0.24938E-01   -0.14437E-01  1402   0.208E+00    0.364E-01
RMM:  10    -0.194323261891E+01   -0.20486E-01   -0.58191E-02  1214   0.161E+00    0.197E-01
RMM:  11    -0.194713598151E+01   -0.39034E-02   -0.19695E-02  1318   0.843E-01    0.122E-01
RMM:  12    -0.196718248826E+01   -0.20047E-01   -0.10801E-02  1311   0.593E-01    0.593E-02
RMM:  13    -0.197545737881E+01   -0.82749E-02   -0.67685E-03  1311   0.461E-01    0.603E-02
RMM:  14    -0.198024964440E+01   -0.47923E-02   -0.52312E-03  1344   0.404E-01    0.713E-02
RMM:  15    -0.198055547530E+01   -0.30583E-03   -0.18441E-03  1247   0.301E-01    0.247E-02
RMM:  16    -0.198126252158E+01   -0.70705E-03   -0.65799E-04  1320   0.126E-01    0.195E-02
RMM:  17    -0.198138834476E+01   -0.12582E-03   -0.24231E-04  1327   0.744E-02    0.927E-03
RMM:  18    -0.198144667807E+01   -0.58333E-04   -0.10347E-04  1406   0.446E-02    0.604E-03
RMM:  19    -0.198148594787E+01   -0.39270E-04   -0.42240E-05  1260   0.353E-02    0.472E-03
RMM:  20    -0.198150071075E+01   -0.14763E-04   -0.23607E-05  1171   0.283E-02    0.294E-03
RMM:  21    -0.198151340911E+01   -0.12698E-04   -0.13744E-05  1086   0.196E-02    0.128E-03
RMM:  22    -0.198151860966E+01   -0.52006E-05   -0.69497E-06  1052   0.128E-02    0.108E-03
RMM:  23    -0.198152059991E+01   -0.19902E-05   -0.33161E-06  1023   0.986E-03    0.465E-04
RMM:  24    -0.198152125787E+01   -0.65797E-06   -0.17503E-06   996   0.685E-03
   1 F= -.19815213E+01 E0= -.19815213E+01  d E =-.805914E-17
 PROFILE, used timers:     277
