srun: ROUTE: split_hostlist: hl=b01r3n19 tree_width 0
 running on    4 total cores
 distrk:  each k-point on    1 cores,    4 groups
 distr:  one band on    1 cores,    1 groups
 HIP runtime initialized ...    4 DCUs will be used
 Created    4 streams on each DCU
 vasp.6.3.2 27Jun22 (build Mar 15 2023 15:45:48) complex                        
  
 POSCAR found type information on POSCAR K F 
 POSCAR found :  2 types and       2 ions
 Reading from existing POTCAR
 scaLAPACK will be used selectively (only on CPU)
 Reading from existing POTCAR
 LDA part: xc-table for Pade appr. of Perdew
 POSCAR found type information on POSCAR K F 
 POSCAR found :  2 types and       2 ions
 -----------------------------------------------------------------------------
|                                                                             |
|           W    W    AA    RRRRR   N    N  II  N    N   GGGG   !!!           |
|           W    W   A  A   R    R  NN   N  II  NN   N  G    G  !!!           |
|           W    W  A    A  R    R  N N  N  II  N N  N  G       !!!           |
|           W WW W  AAAAAA  RRRRR   N  N N  II  N  N N  G  GGG   !            |
|           WW  WW  A    A  R   R   N   NN  II  N   NN  G    G                |
|           W    W  A    A  R    R  N    N  II  N    N   GGGG   !!!           |
|                                                                             |
|     The requested file  could not be found or opened for reading            |
|     k-point information. Automatic k-point generation is used as a          |
|     fallback, which may lead to unwanted results.                           |
|                                                                             |
 -----------------------------------------------------------------------------

 Optimize memory usage for KPAR
 INCAR ok, starting setup
 POSCAR ok, starting setup
 FFT: planning ... GRIDC
 FFT: planning ... GRID_SOFT
 FFT: planning ... GRID
 WAVECAR not read
 WARNING: chargedensity file is incomplete
 WARNING: random wavefunctions but no delay for mixing, default for NELMDL
 entering main loop
       N       E                     dE             d eps       ncg     rms          rms(c)
DAV:   1     0.103360221213E+03    0.10336E+03   -0.56663E+03  1376   0.808E+02
DAV:   2     0.628877261986E+01   -0.97071E+02   -0.94372E+02  1576   0.179E+02
DAV:   3    -0.444791372115E+01   -0.10737E+02   -0.10546E+02  1076   0.699E+01
DAV:   4    -0.485096510658E+01   -0.40305E+00   -0.40249E+00  1332   0.126E+01
DAV:   5    -0.485805406320E+01   -0.70890E-02   -0.70885E-02  1072   0.173E+00    0.854E+00
RMM:   6    -0.228423698689E+01    0.25738E+01   -0.90259E+00   864   0.214E+01    0.227E+00
RMM:   7    -0.209979379220E+01    0.18444E+00   -0.20958E+00   900   0.765E+00    0.178E+00
RMM:   8    -0.194952426138E+01    0.15027E+00   -0.39914E-01   864   0.532E+00    0.665E-01
RMM:   9    -0.192302940434E+01    0.26495E-01   -0.14537E-01  1114   0.208E+00    0.365E-01
RMM:  10    -0.194326581214E+01   -0.20236E-01   -0.60113E-02   922   0.162E+00    0.203E-01
RMM:  11    -0.194702680338E+01   -0.37610E-02   -0.19535E-02  1028   0.847E-01    0.122E-01
RMM:  12    -0.196696360710E+01   -0.19937E-01   -0.10916E-02  1023   0.590E-01    0.590E-02
RMM:  13    -0.197545491921E+01   -0.84913E-02   -0.68226E-03  1023   0.463E-01    0.605E-02
RMM:  14    -0.198022828761E+01   -0.47734E-02   -0.50965E-03  1058   0.397E-01    0.667E-02
RMM:  15    -0.198054293375E+01   -0.31465E-03   -0.17172E-03   958   0.289E-01    0.248E-02
RMM:  16    -0.198125887738E+01   -0.71594E-03   -0.63732E-04  1029   0.123E-01    0.187E-02
RMM:  17    -0.198138983224E+01   -0.13095E-03   -0.23324E-04  1037   0.730E-02    0.907E-03
RMM:  18    -0.198144762205E+01   -0.57790E-04   -0.99800E-05  1113   0.443E-02    0.526E-03
RMM:  19    -0.198148588040E+01   -0.38258E-04   -0.39702E-05   966   0.345E-02    0.471E-03
RMM:  20    -0.198150299193E+01   -0.17112E-04   -0.23142E-05   898   0.284E-02    0.299E-03
RMM:  21    -0.198151363803E+01   -0.10646E-04   -0.12860E-05   795   0.192E-02    0.121E-03
RMM:  22    -0.198151886541E+01   -0.52274E-05   -0.66852E-06   763   0.129E-02    0.110E-03
RMM:  23    -0.198152071043E+01   -0.18450E-05   -0.31026E-06   733   0.100E-02    0.418E-04
RMM:  24    -0.198152128713E+01   -0.57669E-06   -0.16112E-06   700   0.672E-03
   1 F= -.19815213E+01 E0= -.19815213E+01  d E =-.198152E+01
 curvature:   0.00 expect dE= 0.000E+00 dE for cont linesearch  0.000E+00
 trial: gam= 0.00000 g(F)=  0.478E+02 g(S)=  0.000E+00 ort = 0.000E+00 (trialstep = 0.100E+01)
 search vector abs. value=  0.478E+02
 bond charge predicted
       N       E                     dE             d eps       ncg     rms          rms(c)
DAV:   1     0.175164678055E+02    0.19498E+02   -0.55068E+03  1440   0.524E+02    0.111E+01
RMM:   2    -0.167140044932E+01   -0.19188E+02   -0.21221E+02   869   0.135E+02    0.561E+00
RMM:   3    -0.560527686245E+01   -0.39339E+01   -0.48759E+01   936   0.492E+01    0.775E+00
RMM:   4    -0.467115456329E+01    0.93412E+00   -0.17871E+01   936   0.278E+01    0.214E+00
RMM:   5    -0.496447475521E+01   -0.29332E+00   -0.76764E+00  1003   0.148E+01    0.423E+00
RMM:   6    -0.565704389953E+01   -0.69257E+00   -0.11698E+01  1015   0.227E+01    0.612E+00
RMM:   7    -0.652554268500E+01   -0.86850E+00   -0.20811E+00   931   0.903E+00    0.917E+00
RMM:   8    -0.566686666422E+01    0.85868E+00   -0.15168E+01  1116   0.239E+01    0.178E+01
RMM:   9    -0.590640716008E+01   -0.23954E+00   -0.45713E+00  1256   0.724E+00    0.177E+01
RMM:  10    -0.608883996660E+01   -0.18243E+00   -0.28052E+00  1262   0.469E+00    0.180E+01
RMM:  11    -0.578188758597E+01    0.30695E+00   -0.98744E-01  1265   0.349E+00    0.174E+01
RMM:  12    -0.581533520890E+01   -0.33448E-01   -0.13418E+00  1367   0.269E+00    0.175E+01
RMM:  13    -0.565624507479E+01    0.15909E+00   -0.43355E-01  1228   0.210E+00    0.171E+01
RMM:  14    -0.559191450498E+01    0.64331E-01   -0.46169E-01  1262   0.162E+00    0.168E+01
RMM:  15    -0.555030779299E+01    0.41607E-01   -0.15814E-01  1220   0.156E+00    0.168E+01
RMM:  16    -0.550748793252E+01    0.42820E-01   -0.13218E-01  1224   0.150E+00    0.162E+01
RMM:  17    -0.515387343801E+01    0.35361E+00   -0.68554E-02  1181   0.107E+00    0.997E+00
RMM:  18    -0.690737081124E+01   -0.17535E+01   -0.44663E-01  1299   0.323E+00    0.186E+01
RMM:  19    -0.498088245145E+01    0.19265E+01   -0.34465E-01  1383   0.356E+00    0.898E+00
RMM:  20    -0.466431962736E+01    0.31656E+00   -0.93556E-01  1359   0.463E+00    0.261E+00
RMM:  21    -0.480308932725E+01   -0.13877E+00   -0.15643E+00  1296   0.511E+00    0.218E+00
RMM:  22    -0.504147554779E+01   -0.23839E+00   -0.54960E-01  1152   0.295E+00    0.324E+00
RMM:  23    -0.517807330550E+01   -0.13660E+00   -0.87458E-02  1116   0.135E+00    0.328E+00
RMM:  24    -0.527367013041E+01   -0.95597E-01   -0.35517E-02  1093   0.111E+00    0.345E+00
RMM:  25    -0.510675955861E+01    0.16691E+00   -0.17266E-01  1122   0.259E+00    0.258E+00
RMM:  26    -0.501161375086E+01    0.95146E-01   -0.68670E-02  1208   0.229E+00    0.263E+00
RMM:  27    -0.488242135688E+01    0.12919E+00   -0.48453E-02  1106   0.100E+00    0.221E+00
RMM:  28    -0.476999335202E+01    0.11243E+00   -0.59174E-02  1116   0.955E-01    0.171E+00
RMM:  29    -0.477135192291E+01   -0.13586E-02   -0.10835E-02  1007   0.699E-01    0.160E+00
RMM:  30    -0.480588585103E+01   -0.34534E-01   -0.62063E-03   885   0.579E-01    0.170E+00
RMM:  31    -0.481918675744E+01   -0.13301E-01   -0.74024E-03  1030   0.498E-01    0.181E+00
RMM:  32    -0.477509245980E+01    0.44094E-01   -0.74608E-03   996   0.453E-01    0.155E+00
RMM:  33    -0.473737422773E+01    0.37718E-01   -0.13501E-02  1080   0.496E-01    0.127E+00
RMM:  34    -0.472554164964E+01    0.11833E-01   -0.31631E-03  1085   0.244E-01    0.120E+00
RMM:  35    -0.470300513527E+01    0.22537E-01   -0.68881E-03  1080   0.300E-01    0.104E+00
RMM:  36    -0.466871174279E+01    0.34293E-01   -0.35043E-02  1188   0.679E-01    0.667E-01
RMM:  37    -0.466110729088E+01    0.76045E-02   -0.25977E-02  1188   0.558E-01    0.518E-01
RMM:  38    -0.466084820079E+01    0.25909E-03   -0.52588E-03  1150   0.319E-01    0.499E-01
RMM:  39    -0.466206257924E+01   -0.12144E-02   -0.41871E-03  1137   0.291E-01    0.586E-01
RMM:  40    -0.466110613072E+01    0.95645E-03   -0.10538E-03  1111   0.160E-01    0.601E-01
WARNING in EDDRMM: call to ZHEGV failed, returncode =   6  3      6
RMM:  41    -0.466121637891E+01   -0.11025E-03   -0.53263E-04  1180   0.856E-02    0.607E-01
RMM:  42    -0.466178300740E+01   -0.56663E-03   -0.19987E-03  1152   0.227E-01    0.729E-01
RMM:  43    -0.466186844317E+01   -0.85436E-04   -0.36610E-04  1162   0.826E-02    0.726E-01
RMM:  44    -0.465970596875E+01    0.21625E-02   -0.79859E-04  1187   0.144E-01    0.703E-01
RMM:  45    -0.465790853941E+01    0.17974E-02   -0.23026E-04  1036   0.118E-01    0.757E-01
RMM:  46    -0.466224635514E+01   -0.43378E-02   -0.87262E-04  1166   0.210E-01    0.641E-01
RMM:  47    -0.466939611297E+01   -0.71498E-02   -0.22469E-03  1260   0.347E-01    0.456E-01
RMM:  48    -0.467273770192E+01   -0.33416E-02   -0.20605E-03  1296   0.294E-01    0.275E-01
RMM:  49    -0.467452564506E+01   -0.17879E-02   -0.31740E-03  1332   0.297E-01    0.151E-01
RMM:  50    -0.467613104503E+01   -0.16054E-02   -0.20033E-03  1127   0.173E-01    0.193E-01
RMM:  51    -0.467628851909E+01   -0.15747E-03   -0.30557E-04  1084   0.108E-01    0.168E-01
RMM:  52    -0.467714925053E+01   -0.86073E-03   -0.71864E-04  1111   0.156E-01    0.248E-01
RMM:  53    -0.467760552177E+01   -0.45627E-03   -0.27995E-04  1063   0.658E-02    0.279E-01
RMM:  54    -0.467748299112E+01    0.12253E-03   -0.37312E-05   999   0.425E-02    0.266E-01
RMM:  55    -0.467670653524E+01    0.77646E-03   -0.40193E-04  1101   0.883E-02    0.206E-01
RMM:  56    -0.467631986707E+01    0.38667E-03   -0.39662E-04  1094   0.697E-02    0.162E-01
RMM:  57    -0.467593774902E+01    0.38212E-03   -0.21565E-03  1260   0.194E-01    0.280E-02
RMM:  58    -0.467598097084E+01   -0.43222E-04   -0.14694E-04  1115   0.501E-02    0.246E-02
RMM:  59    -0.467598430258E+01   -0.33317E-05   -0.53072E-05  1050   0.421E-02    0.142E-02
RMM:  60    -0.467599413209E+01   -0.98295E-05   -0.57903E-05  1020   0.296E-02
 -----------------------------------------------------------------------------
|                                                                             |
|           W    W    AA    RRRRR   N    N  II  N    N   GGGG   !!!           |
|           W    W   A  A   R    R  NN   N  II  NN   N  G    G  !!!           |
|           W    W  A    A  R    R  N N  N  II  N N  N  G       !!!           |
|           W WW W  AAAAAA  RRRRR   N  N N  II  N  N N  G  GGG   !            |
|           WW  WW  A    A  R   R   N   NN  II  N   NN  G    G                |
|           W    W  A    A  R    R  N    N  II  N    N   GGGG   !!!           |
|                                                                             |
|     The electronic self-consistency was not achieved in the given           |
|     number of steps (NELM). The forces and other quantities evaluated       |
|     might not be reliable so examine the results carefully. If you find     |
|     spurious results, we suggest increasing NELM, if you were close to      |
|     convergence or switching to a different ALGO or adjusting the           |
|     density mixing parameters otherwise.                                    |
|                                                                             |
 -----------------------------------------------------------------------------

   2 F= -.46759941E+01 E0= -.46759941E+01  d E =-.269447E+01
 trial-energy change:   -2.694473  1 .order  -22.963665  -47.826310    1.898980
 step:   0.9618(harm=  0.9618)  dis= 0.65955  next Energy=   -24.981447 (dE=-0.230E+02)
 bond charge predicted
       N       E                     dE             d eps       ncg     rms          rms(c)
DAV:   1    -0.471752323197E+01   -0.41539E-01   -0.17107E+01  1060   0.383E+01    0.432E-01
RMM:   2    -0.474777711857E+01   -0.30254E-01   -0.31825E-01   864   0.530E+00    0.189E-01
RMM:   3    -0.474879590982E+01   -0.10188E-02   -0.22483E-02   936   0.149E+00    0.135E-01
RMM:   4    -0.474922453325E+01   -0.42862E-03   -0.57324E-03   972   0.553E-01    0.661E-02
RMM:   5    -0.474937273889E+01   -0.14821E-03   -0.17267E-03  1051   0.253E-01    0.350E-02
RMM:   6    -0.474950350720E+01   -0.13077E-03   -0.68252E-04   980   0.170E-01    0.156E-02
RMM:   7    -0.474965999004E+01   -0.15648E-03   -0.38135E-04  1028   0.991E-02    0.122E-02
RMM:   8    -0.474985482311E+01   -0.19483E-03   -0.35147E-04  1109   0.979E-02    0.227E-02
RMM:   9    -0.474993687715E+01   -0.82054E-04   -0.19787E-04  1022   0.827E-02    0.434E-03
RMM:  10    -0.475006100386E+01   -0.12413E-03   -0.14888E-04  1017   0.684E-02    0.169E-02
RMM:  11    -0.475008888560E+01   -0.27882E-04   -0.82515E-05  1034   0.459E-02    0.643E-03
RMM:  12    -0.475011007977E+01   -0.21194E-04   -0.52636E-05  1043   0.336E-02    0.343E-03
RMM:  13    -0.475011930577E+01   -0.92260E-05   -0.28042E-05   900   0.258E-02    0.381E-03
RMM:  14    -0.475012574776E+01   -0.64420E-05   -0.17504E-05   831   0.191E-02    0.252E-03
RMM:  15    -0.475012701269E+01   -0.12649E-05   -0.99649E-06   781   0.143E-02    0.712E-04
RMM:  16    -0.475012796306E+01   -0.95036E-06   -0.58679E-06   670   0.105E-02
   3 F= -.47501280E+01 E0= -.47501280E+01  d E =-.276861E+01
 curvature:  -0.48 expect dE=-0.405E-01 dE for cont linesearch -0.402E-01
 ZBRENT: interpolating
 opt :   0.9232  next Energy=    -4.788759 (dE=-0.281E+01)
 bond charge predicted
       N       E                     dE             d eps       ncg     rms          rms(c)
DAV:   1    -0.479597650339E+01   -0.45849E-01   -0.17430E+01   880   0.387E+01    0.440E-01
RMM:   2    -0.482686205253E+01   -0.30886E-01   -0.32609E-01   864   0.538E+00    0.185E-01
RMM:   3    -0.482794618144E+01   -0.10841E-02   -0.23269E-02   936   0.152E+00    0.135E-01
RMM:   4    -0.482831936372E+01   -0.37318E-03   -0.57449E-03   980   0.555E-01    0.678E-02
RMM:   5    -0.482844675319E+01   -0.12739E-03   -0.16886E-03  1046   0.251E-01    0.355E-02
RMM:   6    -0.482854420800E+01   -0.97455E-04   -0.64529E-04   957   0.165E-01    0.156E-02
RMM:   7    -0.482867349150E+01   -0.12928E-03   -0.35920E-04  1022   0.989E-02    0.113E-02
RMM:   8    -0.482883799177E+01   -0.16450E-03   -0.32654E-04  1141   0.950E-02    0.213E-02
RMM:   9    -0.482892342688E+01   -0.85435E-04   -0.20366E-04  1008   0.889E-02    0.584E-03
RMM:  10    -0.482903402780E+01   -0.11060E-03   -0.14214E-04  1023   0.683E-02    0.197E-02
RMM:  11    -0.482905554952E+01   -0.21522E-04   -0.78085E-05   978   0.479E-02    0.812E-03
RMM:  12    -0.482907503792E+01   -0.19488E-04   -0.53559E-05  1045   0.348E-02    0.417E-03
RMM:  13    -0.482908406970E+01   -0.90318E-05   -0.28214E-05   989   0.266E-02    0.382E-03
RMM:  14    -0.482909070532E+01   -0.66356E-05   -0.16171E-05   805   0.193E-02    0.167E-03
RMM:  15    -0.482909268125E+01   -0.19759E-05   -0.98890E-06   753   0.143E-02    0.154E-03
RMM:  16    -0.482909345881E+01   -0.77755E-06   -0.58250E-06   655   0.103E-02
   4 F= -.48290935E+01 E0= -.48290935E+01  d E =-.284757E+01
 curvature:  -0.46 expect dE=-0.430E-01 dE for cont linesearch -0.428E-01
 ZBRENT: bisectioning
 opt :   0.4616  next Energy=    -6.089127 (dE=-0.411E+01)
 bond charge predicted
       N       E                     dE             d eps       ncg     rms          rms(c)
DAV:   1     0.210885559759E+01    0.69379E+01   -0.22560E+03   864   0.404E+02    0.884E+00
RMM:   2    -0.554204122687E+01   -0.76509E+01   -0.93423E+01   864   0.841E+01    0.346E+00
RMM:   3    -0.647760763673E+01   -0.93557E+00   -0.12245E+01   864   0.304E+01    0.458E+00
RMM:   4    -0.620518554705E+01    0.27242E+00   -0.17045E+00   936   0.115E+01    0.325E+00
RMM:   5    -0.602719957743E+01    0.17799E+00   -0.14062E+00   972   0.908E+00    0.687E-01
RMM:   6    -0.604484003610E+01   -0.17640E-01   -0.42251E-01  1116   0.356E+00    0.573E-01
RMM:   7    -0.607765997249E+01   -0.32820E-01   -0.50642E-01   972   0.455E+00    0.145E+00
RMM:   8    -0.602795995006E+01    0.49700E-01   -0.22830E-01   936   0.353E+00    0.232E-01
RMM:   9    -0.603751442713E+01   -0.95545E-02   -0.90663E-02  1044   0.202E+00    0.373E-01
RMM:  10    -0.604513243706E+01   -0.76180E-02   -0.93384E-02   936   0.221E+00    0.505E-01
RMM:  11    -0.604467780570E+01    0.45463E-03   -0.16904E-02   937   0.885E-01    0.321E-01
RMM:  12    -0.604715577658E+01   -0.24780E-02   -0.41830E-02   936   0.142E+00    0.226E-01
RMM:  13    -0.604766296242E+01   -0.50719E-03   -0.65869E-03   986   0.515E-01    0.134E-01
RMM:  14    -0.604861124304E+01   -0.94828E-03   -0.31017E-03  1062   0.312E-01    0.995E-02
RMM:  15    -0.604902299781E+01   -0.41175E-03   -0.19990E-03  1132   0.218E-01    0.629E-02
RMM:  16    -0.604921913409E+01   -0.19614E-03   -0.13503E-03  1065   0.205E-01    0.135E-02
RMM:  17    -0.604938254697E+01   -0.16341E-03   -0.81156E-04  1163   0.133E-01    0.292E-02
RMM:  18    -0.604945771251E+01   -0.75166E-04   -0.34988E-04  1038   0.838E-02    0.191E-02
RMM:  19    -0.604953805104E+01   -0.80339E-04   -0.45104E-04   995   0.126E-01    0.254E-02
RMM:  20    -0.604953478724E+01    0.32638E-05   -0.15822E-04   921   0.700E-02    0.131E-02
RMM:  21    -0.604954581650E+01   -0.11029E-04   -0.82703E-05   963   0.415E-02    0.106E-02
RMM:  22    -0.604956123619E+01   -0.15420E-04   -0.56464E-05   923   0.375E-02    0.173E-02
RMM:  23    -0.604957384154E+01   -0.12605E-04   -0.39314E-05   947   0.319E-02    0.242E-02
RMM:  24    -0.604956758347E+01    0.62581E-05   -0.33465E-05   889   0.347E-02    0.136E-02
RMM:  25    -0.604956802496E+01   -0.44149E-06   -0.17330E-05   845   0.213E-02    0.869E-03
RMM:  26    -0.604956854102E+01   -0.51606E-06   -0.13857E-05   830   0.181E-02    0.272E-03
RMM:  27    -0.604956965151E+01   -0.11105E-05   -0.44928E-06   633   0.107E-02    0.392E-03
RMM:  28    -0.604956989515E+01   -0.24364E-06   -0.38622E-06   691   0.112E-02
   5 F= -.60495699E+01 E0= -.60495699E+01  d E =-.406805E+01
 curvature: -13.60 expect dE=-0.215E+01 dE for cont linesearch -0.214E+01
 ZBRENT: bisectioning
 opt :   0.2308  next Energy=    -6.720065 (dE=-0.474E+01)
 PROFILE, used timers:     279
