<?xml version="1.0" encoding="ISO-8859-1"?>
<modeling>
 <generator>
  <i name="program" type="string">vasp </i>
  <i name="version" type="string">6.3.2  </i>
  <i name="subversion" type="string">27Jun22 (build Mar 15 2023 15:45:48) complex                          parallel </i>
  <i name="platform" type="string">LinuxIFC </i>
  <i name="date" type="string">2024 07 18 </i>
  <i name="time" type="string">10:47:51 </i>
 </generator>
 <incar>
  <i type="string" name="PREC">Accurate</i>
  <i type="string" name="ALGO">Fast</i>
  <i type="int" name="ICHARG">     1</i>
  <i type="int" name="IBRION">     2</i>
  <i name="EDIFF">      0.00000100</i>
  <i name="EDIFFG">     -0.01000000</i>
  <i type="int" name="NSW">     5</i>
  <i type="int" name="ISIF">     2</i>
  <i name="ENCUT">    520.00000000</i>
  <i type="logical" name="LREAL"> F  </i>
  <i type="int" name="ISMEAR">     0</i>
  <i name="SIGMA">      0.05000000</i>
  <i name="KSPACING">      0.20000000</i>
  <i type="logical" name="LWAVE"> F  </i>
  <i type="logical" name="LCHARG"> F  </i>
 </incar>
 <primitive_cell>
  <structure name="primitive_cell" >
   <crystal>
    <varray name="basis" >
     <v>       8.00000000       0.00000000       0.00000000 </v>
     <v>       0.00000000       9.00000000       0.00000000 </v>
     <v>       0.00000000       0.00000000      10.00000000 </v>
    </varray>
    <i name="volume">    720.00000000 </i>
    <varray name="rec_basis" >
     <v>       0.12500000       0.00000000       0.00000000 </v>
     <v>       0.00000000       0.11111111       0.00000000 </v>
     <v>       0.00000000       0.00000000       0.10000000 </v>
    </varray>
   </crystal>
   <varray name="positions" >
    <v>       0.60000000       0.60000000       0.60000000 </v>
    <v>       0.50000000       0.50000000       0.50000000 </v>
   </varray>
  </structure>
  <varray name="primitive_index" >
   <v type="int" >        1 </v>
   <v type="int" >        2 </v>
  </varray>
 </primitive_cell>
 <kpoints>
  <generation param="Gamma">
   <v type="int" name="divisions">       4        4        4 </v>
   <v name="usershift">      0.00000000       0.00000000       0.00000000 </v>
   <v name="genvec1">      0.25000000       0.00000000       0.00000000 </v>
   <v name="genvec2">      0.00000000       0.25000000       0.00000000 </v>
   <v name="genvec3">      0.00000000       0.00000000       0.25000000 </v>
   <v name="shift">      0.00000000       0.00000000       0.00000000 </v>
  </generation>
  <varray name="kpointlist" >
   <v>       0.00000000       0.00000000       0.00000000 </v>
   <v>       0.25000000       0.00000000       0.00000000 </v>
   <v>       0.50000000       0.00000000       0.00000000 </v>
   <v>       0.00000000       0.25000000       0.00000000 </v>
   <v>       0.25000000       0.25000000       0.00000000 </v>
   <v>       0.25000000      -0.25000000       0.00000000 </v>
   <v>       0.50000000       0.25000000       0.00000000 </v>
   <v>       0.00000000       0.50000000       0.00000000 </v>
   <v>       0.25000000       0.50000000       0.00000000 </v>
   <v>       0.50000000       0.50000000       0.00000000 </v>
   <v>       0.00000000       0.00000000       0.25000000 </v>
   <v>       0.25000000       0.00000000       0.25000000 </v>
   <v>       0.25000000       0.00000000      -0.25000000 </v>
   <v>       0.50000000       0.00000000       0.25000000 </v>
   <v>       0.00000000       0.25000000       0.25000000 </v>
   <v>       0.00000000       0.25000000      -0.25000000 </v>
   <v>       0.25000000       0.25000000       0.25000000 </v>
   <v>       0.25000000      -0.25000000      -0.25000000 </v>
   <v>      -0.25000000       0.25000000      -0.25000000 </v>
   <v>      -0.25000000      -0.25000000       0.25000000 </v>
   <v>       0.50000000       0.25000000       0.25000000 </v>
   <v>       0.50000000       0.25000000      -0.25000000 </v>
   <v>       0.00000000       0.50000000       0.25000000 </v>
   <v>       0.25000000       0.50000000       0.25000000 </v>
   <v>       0.25000000       0.50000000      -0.25000000 </v>
   <v>       0.50000000       0.50000000       0.25000000 </v>
   <v>       0.00000000       0.00000000       0.50000000 </v>
   <v>       0.25000000       0.00000000       0.50000000 </v>
   <v>       0.50000000       0.00000000       0.50000000 </v>
   <v>       0.00000000       0.25000000       0.50000000 </v>
   <v>       0.25000000       0.25000000       0.50000000 </v>
   <v>       0.25000000      -0.25000000       0.50000000 </v>
   <v>       0.50000000       0.25000000       0.50000000 </v>
   <v>       0.00000000       0.50000000       0.50000000 </v>
   <v>       0.25000000       0.50000000       0.50000000 </v>
   <v>       0.50000000       0.50000000       0.50000000 </v>
  </varray>
  <varray name="weights" >
   <v>       0.01562500 </v>
   <v>       0.03125000 </v>
   <v>       0.01562500 </v>
   <v>       0.03125000 </v>
   <v>       0.03125000 </v>
   <v>       0.03125000 </v>
   <v>       0.03125000 </v>
   <v>       0.01562500 </v>
   <v>       0.03125000 </v>
   <v>       0.01562500 </v>
   <v>       0.03125000 </v>
   <v>       0.03125000 </v>
   <v>       0.03125000 </v>
   <v>       0.03125000 </v>
   <v>       0.03125000 </v>
   <v>       0.03125000 </v>
   <v>       0.03125000 </v>
   <v>       0.03125000 </v>
   <v>       0.03125000 </v>
   <v>       0.03125000 </v>
   <v>       0.03125000 </v>
   <v>       0.03125000 </v>
   <v>       0.03125000 </v>
   <v>       0.03125000 </v>
   <v>       0.03125000 </v>
   <v>       0.03125000 </v>
   <v>       0.01562500 </v>
   <v>       0.03125000 </v>
   <v>       0.01562500 </v>
   <v>       0.03125000 </v>
   <v>       0.03125000 </v>
   <v>       0.03125000 </v>
   <v>       0.03125000 </v>
   <v>       0.01562500 </v>
   <v>       0.03125000 </v>
   <v>       0.01562500 </v>
  </varray>
 </kpoints>
 <parameters>
  <separator name="general" >
   <i type="string" name="SYSTEM">unknown system</i>
   <i type="logical" name="LCOMPAT"> F  </i>
  </separator>
  <separator name="electronic" >
   <i type="string" name="PREC">accura</i>
   <i name="ENMAX">    520.00000000</i>
   <i name="ENAUG">    613.61400000</i>
   <i name="EDIFF">      0.00000100</i>
   <i type="int" name="IALGO">    68</i>
   <i type="int" name="IWAVPR">    11</i>
   <i type="int" name="NBANDS">    12</i>
   <i type="int" name="NBANDSLOW">    -1</i>
   <i type="int" name="NBANDSHIGH">    -1</i>
   <i name="NELECT">     16.00000000</i>
   <i type="int" name="TURBO">     0</i>
   <i type="int" name="IRESTART">     0</i>
   <i type="int" name="NREBOOT">     0</i>
   <i type="int" name="NMIN">     0</i>
   <i name="EREF">      0.00000000</i>
   <separator name="electronic smearing" >
    <i type="int" name="ISMEAR">     0</i>
    <i name="SIGMA">      0.05000000</i>
    <i name="KSPACING">      0.20000000</i>
    <i type="logical" name="KGAMMA"> T  </i>
    <i type="logical" name="KBLOWUP"> T  </i>
   </separator>
   <separator name="electronic projectors" >
    <i type="logical" name="LREAL"> F  </i>
    <v name="ROPT">      0.00000000      0.00000000</v>
    <i type="int" name="LMAXPAW">  -100</i>
    <i type="int" name="LMAXMIX">     2</i>
    <i type="logical" name="NLSPLINE"> F  </i>
   </separator>
   <separator name="electronic startup" >
    <i type="int" name="ISTART">     0</i>
    <i type="int" name="ICHARG">     1</i>
    <i type="int" name="INIWAV">     1</i>
   </separator>
   <separator name="electronic spin" >
    <i type="int" name="ISPIN">     1</i>
    <i type="logical" name="LNONCOLLINEAR"> F  </i>
    <v name="MAGMOM">      1.00000000      1.00000000</v>
    <i name="NUPDOWN">     -1.00000000</i>
    <i type="logical" name="LSORBIT"> F  </i>
    <v name="SAXIS">      0.00000000      0.00000000      1.00000000</v>
    <i type="logical" name="LSPIRAL"> F  </i>
    <v name="QSPIRAL">      0.00000000      0.00000000      0.00000000</v>
    <i type="logical" name="LZEROZ"> F  </i>
   </separator>
   <separator name="electronic exchange-correlation" >
    <i type="logical" name="LASPH"> F  </i>
    <i type="logical" name="LMETAGGA"> F  </i>
   </separator>
   <separator name="electronic convergence" >
    <i type="int" name="NELM">    60</i>
    <i type="int" name="NELMDL">     0</i>
    <i type="int" name="NELMIN">     2</i>
    <i name="ENINI">    520.00000000</i>
    <separator name="electronic convergence detail" >
     <i type="logical" name="LDIAG"> T  </i>
     <i type="logical" name="LSUBROT"> F  </i>
     <i name="WEIMIN">      0.00100000</i>
     <i name="EBREAK">      0.00000002</i>
     <i name="DEPER">      0.30000000</i>
     <i type="int" name="NRMM">     4</i>
     <i name="TIME">      0.40000000</i>
    </separator>
   </separator>
   <separator name="electronic mixer" >
    <i name="AMIX">      0.40000000</i>
    <i name="BMIX">      1.00000000</i>
    <i name="AMIN">      0.10000000</i>
    <i name="AMIX_MAG">      1.60000000</i>
    <i name="BMIX_MAG">      1.00000000</i>
    <separator name="electronic mixer details" >
     <i type="int" name="IMIX">     4</i>
     <i type="logical" name="MIXFIRST"> F  </i>
     <i type="int" name="MAXMIX">   -45</i>
     <i name="WC">    100.00000000</i>
     <i type="int" name="INIMIX">     1</i>
     <i type="int" name="MIXPRE">     1</i>
     <i type="int" name="MREMOVE">     5</i>
    </separator>
   </separator>
   <separator name="electronic dipolcorrection" >
    <i type="logical" name="LDIPOL"> F  </i>
    <i type="logical" name="LMONO"> F  </i>
    <i type="int" name="IDIPOL">     0</i>
    <i name="EPSILON">      1.00000000</i>
    <v name="DIPOL">   -100.00000000   -100.00000000   -100.00000000</v>
    <i name="EFIELD">      0.00000000</i>
   </separator>
  </separator>
  <separator name="grids" >
   <i type="int" name="NGX">    60</i>
   <i type="int" name="NGY">    70</i>
   <i type="int" name="NGZ">    80</i>
   <i type="int" name="NGXF">   120</i>
   <i type="int" name="NGYF">   140</i>
   <i type="int" name="NGZF">   160</i>
   <i type="logical" name="ADDGRID"> F  </i>
  </separator>
  <separator name="ionic" >
   <i type="int" name="NSW">     5</i>
   <i type="int" name="IBRION">     2</i>
   <i type="int" name="MDALGO">     0</i>
   <i type="int" name="ISIF">     2</i>
   <i name="PSTRESS">      0.00000000</i>
   <i name="EDIFFG">     -0.01000000</i>
   <i type="int" name="NFREE">     1</i>
   <i name="POTIM">      0.50000000</i>
   <i name="SMASS">     -3.00000000</i>
   <i name="SCALEE">      1.00000000</i>
  </separator>
  <separator name="ionic md" >
   <i name="TEBEG">      0.00010000</i>
   <i name="TEEND">      0.00010000</i>
   <i type="int" name="NBLOCK">     1</i>
   <i type="int" name="KBLOCK">     5</i>
   <i type="int" name="NPACO">   256</i>
   <i name="APACO">     10.00000000</i>
  </separator>
  <separator name="symmetry" >
   <i type="int" name="ISYM">     2</i>
   <i name="SYMPREC">      0.00001000</i>
  </separator>
  <separator name="dos" >
   <i type="int" name="LORBIT">     0</i>
   <v name="RWIGS">     -1.00000000     -1.00000000</v>
   <i type="int" name="NEDOS">   301</i>
   <i name="EMIN">     10.00000000</i>
   <i name="EMAX">    -10.00000000</i>
   <i name="EFERMI">      0.00000000</i>
  </separator>
  <separator name="writing" >
   <i type="int" name="NWRITE">     2</i>
   <i type="logical" name="LWAVE"> F  </i>
   <i type="logical" name="LDOWNSAMPLE"> F  </i>
   <i type="logical" name="LCHARG"> F  </i>
   <i type="logical" name="LPARD"> F  </i>
   <i type="logical" name="LVTOT"> F  </i>
   <i type="logical" name="LVHAR"> F  </i>
   <i type="logical" name="LELF"> F  </i>
   <i type="logical" name="LOPTICS"> F  </i>
   <v name="STM">      0.00000000      0.00000000      0.00000000      0.00000000      0.00000000      0.00000000      0.00000000</v>
  </separator>
  <separator name="performance" >
   <i type="int" name="NPAR">     1</i>
   <i type="int" name="NSIM">     4</i>
   <i type="int" name="NBLK">    -1</i>
   <i type="logical" name="LPLANE"> T  </i>
   <i type="logical" name="LSCALAPACK"> T  </i>
   <i type="logical" name="LSCAAWARE"> F  </i>
   <i type="logical" name="LSCALU"> F  </i>
   <i type="logical" name="LASYNC"> F  </i>
   <i type="logical" name="LORBITALREAL"> F  </i>
  </separator>
  <separator name="miscellaneous" >
   <i type="int" name="IDIOT">     3</i>
   <i type="int" name="PHON_NSTRUCT">    -1</i>
   <i type="logical" name="LMUSIC"> F  </i>
   <v name="POMASS">     39.09800000     18.99800000</v>
   <v name="DARWINR">      0.00000000      0.00000000</v>
   <v name="DARWINV">      1.00000000      1.00000000</v>
   <i type="logical" name="LCORR"> T  </i>
  </separator>
  <i type="logical" name="GGA_COMPAT"> T  </i>
  <i type="logical" name="LBERRY"> F  </i>
  <i type="int" name="ICORELEVEL">     0</i>
  <i type="logical" name="LDAU"> F  </i>
  <i type="int" name="I_CONSTRAINED_M">     0</i>
  <separator name="electronic exchange-correlation" >
   <i type="string" name="GGA">--</i>
   <i type="int" name="VOSKOWN">     0</i>
   <i type="logical" name="LHFCALC"> F  </i>
   <i type="string" name="PRECFOCK"></i>
   <i type="logical" name="LSYMGRAD"> F  </i>
   <i type="logical" name="LHFONE"> F  </i>
   <i type="logical" name="LRHFCALC"> F  </i>
   <i type="logical" name="LTHOMAS"> F  </i>
   <i type="logical" name="LMODELHF"> F  </i>
   <i type="logical" name="LFOCKACE"> F  </i>
   <i name="ENCUT4O">     -1.00000000</i>
   <i type="int" name="EXXOEP">     0</i>
   <i type="int" name="FOURORBIT">     0</i>
   <i name="AEXX">      0.00000000</i>
   <i name="HFALPHA">      0.00000000</i>
   <i name="MCALPHA">      0.00000000</i>
   <i name="ALDAX">      1.00000000</i>
   <i name="AGGAX">      1.00000000</i>
   <i name="ALDAC">      1.00000000</i>
   <i name="AGGAC">      1.00000000</i>
   <i type="int" name="NKREDX">     1</i>
   <i type="int" name="NKREDY">     1</i>
   <i type="int" name="NKREDZ">     1</i>
   <i type="logical" name="SHIFTRED"> F  </i>
   <i type="logical" name="ODDONLY"> F  </i>
   <i type="logical" name="EVENONLY"> F  </i>
   <i type="int" name="LMAXFOCK">     0</i>
   <i type="int" name="NMAXFOCKAE">     0</i>
   <i type="logical" name="LFOCKAEDFT"> F  </i>
   <i name="HFSCREEN">      0.00000000</i>
   <i name="HFSCREENC">      0.00000000</i>
   <i type="int" name="NBANDSGWLOW">     0</i>
  </separator>
  <separator name="vdW DFT" >
   <i type="logical" name="LUSE_VDW"> F  </i>
   <i name="Zab_VDW">     -0.84910000</i>
   <i name="PARAM1">      0.12340000</i>
   <i name="PARAM2">      1.00000000</i>
   <i name="PARAM3">      0.00000000</i>
  </separator>
  <separator name="model GW" >
   <i type="int" name="MODEL_GW">     0</i>
   <i name="MODEL_EPS0">    216.00000000</i>
   <i name="MODEL_ALPHA">      1.00000000</i>
  </separator>
  <separator name="linear response parameters" >
   <i type="logical" name="LEPSILON"> F  </i>
   <i type="logical" name="LRPA"> F  </i>
   <i type="logical" name="LNABLA"> F  </i>
   <i type="logical" name="LVEL"> F  </i>
   <i name="CSHIFT">      0.10000000</i>
   <i name="OMEGAMAX">     -1.00000000</i>
   <i name="DEG_THRESHOLD">      0.00200000</i>
   <i name="RTIME">     -0.10000000</i>
   <i name="WPLASMAI">      0.00000000</i>
   <v name="DFIELD">      0.00000000      0.00000000      0.00000000</v>
   <v name="WPLASMA">      0.00000000      0.00000000      0.00000000      0.00000000      0.00000000      0.00000000      0.00000000      0.00000000      0.00000000</v>
  </separator>
  <separator name="orbital magnetization" >
   <i type="logical" name="NUCIND"> F  </i>
   <v name="MAGPOS">      0.00000000      0.00000000      0.00000000</v>
   <i type="logical" name="LNICSALL"> T  </i>
   <i type="logical" name="ORBITALMAG"> F  </i>
   <i type="logical" name="LMAGBLOCH"> F  </i>
   <i type="logical" name="LCHIMAG"> F  </i>
   <i type="logical" name="LGAUGE"> T  </i>
   <i type="int" name="MAGATOM">     0</i>
   <v name="MAGDIPOL">      0.00000000      0.00000000      0.00000000</v>
   <v name="AVECCONST">      0.00000000      0.00000000      0.00000000</v>
  </separator>
  <separator name="response functions" >
   <i type="logical" name="LFINITE_TEMPERATURE"> F  </i>
   <i type="logical" name="LADDER"> F  </i>
   <i type="logical" name="LRPAFORCE"> F  </i>
   <i type="logical" name="LFXC"> F  </i>
   <i type="logical" name="LHARTREE"> T  </i>
   <i type="int" name="IBSE">     0</i>
   <v type="int" name="KPOINT">    -1     0     0     0</v>
   <i type="logical" name="LTCTC"> F  </i>
   <i type="logical" name="LTCTE"> F  </i>
   <i type="logical" name="LTETE"> F  </i>
   <i type="logical" name="LTRIPLET"> F  </i>
   <i type="logical" name="LFXCEPS"> F  </i>
   <i type="logical" name="LFXHEG"> F  </i>
   <i type="int" name="NATURALO">     2</i>
   <i type="logical" name="LHOLEGF"> F  </i>
   <i type="logical" name="L2ORDER"> F  </i>
   <i type="logical" name="LDMP1"> F  </i>
   <i type="logical" name="LMP2LT"> F  </i>
   <i type="logical" name="LSMP2LT"> F  </i>
   <i type="logical" name="LGWLF"> F  </i>
   <i name="ENCUTGW">     -2.00000000</i>
   <i name="ENCUTGWSOFT">     -2.00000000</i>
   <i name="ENCUTLF">     -1.00000000</i>
   <i type="logical" name="LESF_SPLINES"> F  </i>
   <i type="int" name="LMAXMP2">    -1</i>
   <i name="SCISSOR">      0.00000000</i>
   <i type="int" name="NOMEGA">     0</i>
   <i type="int" name="NOMEGAR">     0</i>
   <i type="int" name="NBANDSGW">    -1</i>
   <i type="int" name="NBANDSO">    -1</i>
   <i type="int" name="NBANDSV">    -1</i>
   <i type="int" name="NELMGW">     1</i>
   <i type="int" name="NELMHF">     1</i>
   <i type="int" name="DIM">     3</i>
   <i type="int" name="IESPILON">     4</i>
   <i type="int" name="ANTIRES">     0</i>
   <i name="OMEGAMAX">    -30.00000000</i>
   <i name="OMEGAMIN">    -30.00000000</i>
   <i name="OMEGATL">   -200.00000000</i>
   <i type="int" name="OMEGAGRID">     0</i>
   <i name="CSHIFT">     -0.10000000</i>
   <i type="logical" name="LSELFENERGY"> F  </i>
   <i type="logical" name="LSPECTRAL"> F  </i>
   <i type="logical" name="LSPECTRALGW"> F  </i>
   <i type="logical" name="LSINGLES"> F  </i>
   <i type="logical" name="LFERMIGW"> F  </i>
   <i type="logical" name="ODDONLYGW"> F  </i>
   <i type="logical" name="EVENONLYGW"> F  </i>
   <i type="int" name="NKREDLFX">     1</i>
   <i type="int" name="NKREDLFY">     1</i>
   <i type="int" name="NKREDLFZ">     1</i>
   <i type="int" name="MAXMEM">  2800</i>
   <i type="int" name="TELESCOPE">     0</i>
   <i type="int" name="NTAUPAR">    -1</i>
   <i type="int" name="NOMEGAPAR">    -1</i>
   <i name="DAMP_NEWTON">      0.80000001</i>
   <i name="LAMBDA">      1.00000000</i>
  </separator>
  <separator name="External order field" >
   <i name="OFIELD_KAPPA">      0.00000000</i>
   <v name="OFIELD_K">      0.00000000      0.00000000      0.00000000</v>
   <i name="OFIELD_Q6_NEAR">      0.00000000</i>
   <i name="OFIELD_Q6_FAR">      0.00000000</i>
   <i name="OFIELD_A">      0.00000000</i>
  </separator>
  <separator name="optional k-points parameters" >
   <i type="int" name="KPOINTS_OPT_MODE">     1</i>
   <i type="logical" name="LKPOINTS_OPT"> F  </i>
  </separator>
  <separator name="solvation model" >
   <i type="logical" name="LSOL"> F  </i>
  </separator>
 </parameters>
 <atominfo>
  <atoms>       2 </atoms>
  <types>       2 </types>
  <array name="atoms" >
   <dimension dim="1">ion</dimension>
   <field type="string">element</field>
   <field type="int">atomtype</field>
   <set>
    <rc><c>K </c><c>   1</c></rc>
    <rc><c>F </c><c>   2</c></rc>
   </set>
  </array>
  <array name="atomtypes" >
   <dimension dim="1">type</dimension>
   <field type="int">atomspertype</field>
   <field type="string">element</field>
   <field>mass</field>
   <field>valence</field>
   <field type="string">pseudopotential</field>
   <set>
    <rc><c>   1</c><c>K </c><c>     39.09800000</c><c>      9.00000000</c><c> PAW_PBE K_sv 06Sep2000                 </c></rc>
    <rc><c>   1</c><c>F </c><c>     18.99800000</c><c>      7.00000000</c><c> PAW_PBE F 08Apr2002                    </c></rc>
   </set>
  </array>
 </atominfo>
 <structure name="initialpos" >
  <crystal>
   <varray name="basis" >
    <v>       8.00000000       0.00000000       0.00000000 </v>
    <v>       0.00000000       9.00000000       0.00000000 </v>
    <v>       0.00000000       0.00000000      10.00000000 </v>
   </varray>
   <i name="volume">    720.00000000 </i>
   <varray name="rec_basis" >
    <v>       0.12500000       0.00000000       0.00000000 </v>
    <v>       0.00000000       0.11111111       0.00000000 </v>
    <v>       0.00000000       0.00000000       0.10000000 </v>
   </varray>
  </crystal>
  <varray name="positions" >
   <v>       0.60000000       0.60000000       0.60000000 </v>
   <v>       0.50000000       0.50000000       0.50000000 </v>
  </varray>
 </structure>
 <calculation>
  <scstep>
   <time name="dav">    6.51    0.94</time>
   <time name="total">   10.48    1.51</time>
   <energy>
    <i name="alphaZ">      3.62109549 </i>
    <i name="ewald">      9.33877718 </i>
    <i name="hartreedc">  -1194.42413480 </i>
    <i name="XCdc">     72.09850053 </i>
    <i name="pawpsdc">    939.13658234 </i>
    <i name="pawaedc">   -939.20850634 </i>
    <i name="eentropy">     -0.00157188 </i>
    <i name="bandstr">   -221.40331401 </i>
    <i name="atom">   1434.20279271 </i>
    <i name="e_fr_energy">    103.36022121 </i>
    <i name="e_wo_entrp">    103.36179310 </i>
    <i name="e_0_energy">    103.36100715 </i>
   </energy>
  </scstep>
  <scstep>
   <time name="dav">    6.78    0.97</time>
   <time name="total">    6.78    0.97</time>
   <energy>
    <i name="e_fr_energy">      6.28877262 </i>
    <i name="e_wo_entrp">      6.28999195 </i>
    <i name="e_0_energy">      6.28938228 </i>
   </energy>
  </scstep>
  <scstep>
   <time name="dav">    5.34    0.77</time>
   <time name="total">    5.34    0.77</time>
   <energy>
    <i name="e_fr_energy">     -4.44791372 </i>
    <i name="e_wo_entrp">     -4.44791372 </i>
    <i name="e_0_energy">     -4.44791372 </i>
   </energy>
  </scstep>
  <scstep>
   <time name="dav">    6.05    0.87</time>
   <time name="total">    6.05    0.87</time>
   <energy>
    <i name="e_fr_energy">     -4.85096511 </i>
    <i name="e_wo_entrp">     -4.85096511 </i>
    <i name="e_0_energy">     -4.85096511 </i>
   </energy>
  </scstep>
  <scstep>
   <time name="dav">    5.22    0.75</time>
   <time name="total">    5.93    0.85</time>
   <energy>
    <i name="e_fr_energy">     -4.85805406 </i>
    <i name="e_wo_entrp">     -4.85805406 </i>
    <i name="e_0_energy">     -4.85805406 </i>
   </energy>
  </scstep>
  <scstep>
   <time name="diag">    0.56    0.08</time>
   <time name="diis">    1.11    0.32</time>
   <time name="orth">    0.04    0.02</time>
   <time name="total">    6.15    1.09</time>
   <energy>
    <i name="e_fr_energy">     -2.28423699 </i>
    <i name="e_wo_entrp">     -2.28423699 </i>
    <i name="e_0_energy">     -2.28423699 </i>
   </energy>
  </scstep>
  <scstep>
   <time name="diag">    0.56    0.08</time>
   <time name="diis">    1.20    0.35</time>
   <time name="orth">    0.04    0.02</time>
   <time name="total">    6.16    1.09</time>
   <energy>
    <i name="e_fr_energy">     -2.09979379 </i>
    <i name="e_wo_entrp">     -2.09979379 </i>
    <i name="e_0_energy">     -2.09979379 </i>
   </energy>
  </scstep>
  <scstep>
   <time name="diag">    0.30    0.08</time>
   <time name="diis">    0.62    0.32</time>
   <time name="orth">    0.04    0.02</time>
   <time name="total">    6.51    1.23</time>
   <energy>
    <i name="e_fr_energy">     -1.94952426 </i>
    <i name="e_wo_entrp">     -1.94952426 </i>
    <i name="e_0_energy">     -1.94952426 </i>
   </energy>
  </scstep>
  <scstep>
   <time name="diag">    0.55    0.08</time>
   <time name="diis">    1.39    0.44</time>
   <time name="orth">    0.04    0.02</time>
   <time name="total">    6.38    1.19</time>
   <energy>
    <i name="e_fr_energy">     -1.92302940 </i>
    <i name="e_wo_entrp">     -1.92302940 </i>
    <i name="e_0_energy">     -1.92302940 </i>
   </energy>
  </scstep>
  <scstep>
   <time name="diag">    0.54    0.08</time>
   <time name="diis">    1.23    0.36</time>
   <time name="orth">    0.04    0.02</time>
   <time name="total">    6.39    1.14</time>
   <energy>
    <i name="e_fr_energy">     -1.94326581 </i>
    <i name="e_wo_entrp">     -1.94326581 </i>
    <i name="e_0_energy">     -1.94326581 </i>
   </energy>
  </scstep>
  <scstep>
   <time name="diag">    0.55    0.08</time>
   <time name="diis">    1.31    0.40</time>
   <time name="orth">    0.04    0.02</time>
   <time name="total">    6.21    1.14</time>
   <energy>
    <i name="e_fr_energy">     -1.94702680 </i>
    <i name="e_wo_entrp">     -1.94702680 </i>
    <i name="e_0_energy">     -1.94702680 </i>
   </energy>
  </scstep>
  <scstep>
   <time name="diag">    0.55    0.08</time>
   <time name="diis">    1.32    0.40</time>
   <time name="orth">    0.04    0.02</time>
   <time name="total">    6.14    1.14</time>
   <energy>
    <i name="e_fr_energy">     -1.96696361 </i>
    <i name="e_wo_entrp">     -1.96696361 </i>
    <i name="e_0_energy">     -1.96696361 </i>
   </energy>
  </scstep>
  <scstep>
   <time name="diag">    0.49    0.08</time>
   <time name="diis">    1.31    0.40</time>
   <time name="orth">    0.04    0.02</time>
   <time name="total">    6.06    1.13</time>
   <energy>
    <i name="e_fr_energy">     -1.97545492 </i>
    <i name="e_wo_entrp">     -1.97545492 </i>
    <i name="e_0_energy">     -1.97545492 </i>
   </energy>
  </scstep>
  <scstep>
   <time name="diag">    0.54    0.08</time>
   <time name="diis">    1.34    0.41</time>
   <time name="orth">    0.04    0.02</time>
   <time name="total">    6.15    1.13</time>
   <energy>
    <i name="e_fr_energy">     -1.98022829 </i>
    <i name="e_wo_entrp">     -1.98022829 </i>
    <i name="e_0_energy">     -1.98022829 </i>
   </energy>
  </scstep>
  <scstep>
   <time name="diag">    0.54    0.08</time>
   <time name="diis">    1.27    0.37</time>
   <time name="orth">    0.04    0.02</time>
   <time name="total">    6.07    1.10</time>
   <energy>
    <i name="e_fr_energy">     -1.98054293 </i>
    <i name="e_wo_entrp">     -1.98054293 </i>
    <i name="e_0_energy">     -1.98054293 </i>
   </energy>
  </scstep>
  <scstep>
   <time name="diag">    0.55    0.08</time>
   <time name="diis">    1.32    0.40</time>
   <time name="orth">    0.04    0.02</time>
   <time name="total">    6.16    1.13</time>
   <energy>
    <i name="e_fr_energy">     -1.98125888 </i>
    <i name="e_wo_entrp">     -1.98125888 </i>
    <i name="e_0_energy">     -1.98125888 </i>
   </energy>
  </scstep>
  <scstep>
   <time name="diag">    0.55    0.08</time>
   <time name="diis">    1.32    0.40</time>
   <time name="orth">    0.04    0.02</time>
   <time name="total">    6.22    1.14</time>
   <energy>
    <i name="e_fr_energy">     -1.98138983 </i>
    <i name="e_wo_entrp">     -1.98138983 </i>
    <i name="e_0_energy">     -1.98138983 </i>
   </energy>
  </scstep>
  <scstep>
   <time name="diag">    0.55    0.08</time>
   <time name="diis">    1.41    0.45</time>
   <time name="orth">    0.04    0.02</time>
   <time name="total">    6.35    1.19</time>
   <energy>
    <i name="e_fr_energy">     -1.98144762 </i>
    <i name="e_wo_entrp">     -1.98144762 </i>
    <i name="e_0_energy">     -1.98144762 </i>
   </energy>
  </scstep>
  <scstep>
   <time name="diag">    0.54    0.08</time>
   <time name="diis">    1.27    0.37</time>
   <time name="orth">    0.05    0.02</time>
   <time name="total">    6.25    1.13</time>
   <energy>
    <i name="e_fr_energy">     -1.98148588 </i>
    <i name="e_wo_entrp">     -1.98148588 </i>
    <i name="e_0_energy">     -1.98148588 </i>
   </energy>
  </scstep>
  <scstep>
   <time name="diag">    0.54    0.08</time>
   <time name="diis">    1.23    0.35</time>
   <time name="orth">    0.04    0.02</time>
   <time name="total">    6.23    1.11</time>
   <energy>
    <i name="e_fr_energy">     -1.98150299 </i>
    <i name="e_wo_entrp">     -1.98150299 </i>
    <i name="e_0_energy">     -1.98150299 </i>
   </energy>
  </scstep>
  <scstep>
   <time name="diag">    0.54    0.08</time>
   <time name="diis">    1.17    0.32</time>
   <time name="orth">    0.04    0.02</time>
   <time name="total">    6.18    1.08</time>
   <energy>
    <i name="e_fr_energy">     -1.98151364 </i>
    <i name="e_wo_entrp">     -1.98151364 </i>
    <i name="e_0_energy">     -1.98151364 </i>
   </energy>
  </scstep>
  <scstep>
   <time name="diag">    0.55    0.08</time>
   <time name="diis">    1.12    0.30</time>
   <time name="orth">    0.04    0.02</time>
   <time name="total">    6.15    1.06</time>
   <energy>
    <i name="e_fr_energy">     -1.98151887 </i>
    <i name="e_wo_entrp">     -1.98151887 </i>
    <i name="e_0_energy">     -1.98151887 </i>
   </energy>
  </scstep>
  <scstep>
   <time name="diag">    0.55    0.08</time>
   <time name="diis">    1.11    0.29</time>
   <time name="orth">    0.04    0.02</time>
   <time name="total">    6.21    1.06</time>
   <energy>
    <i name="e_fr_energy">     -1.98152071 </i>
    <i name="e_wo_entrp">     -1.98152071 </i>
    <i name="e_0_energy">     -1.98152071 </i>
   </energy>
  </scstep>
  <scstep>
   <time name="diag">    0.55    0.08</time>
   <time name="diis">    1.10    0.29</time>
   <time name="orth">    0.04    0.02</time>
   <time name="total">    5.54    0.94</time>
   <energy>
    <i name="alphaZ">      3.62109549 </i>
    <i name="ewald">      9.33877718 </i>
    <i name="hartreedc">  -1273.29904041 </i>
    <i name="XCdc">     75.21200756 </i>
    <i name="pawpsdc">   1073.12853347 </i>
    <i name="pawaedc">  -1073.00018574 </i>
    <i name="eentropy">     -0.00000000 </i>
    <i name="bandstr">   -251.18550154 </i>
    <i name="atom">   1434.20279271 </i>
    <i name="e_fr_energy">     -1.98152129 </i>
    <i name="e_wo_entrp">     -1.98152129 </i>
    <i name="e_0_energy">     -1.98152129 </i>
   </energy>
  </scstep>
  <structure>
   <crystal>
    <varray name="basis" >
     <v>       8.00000000       0.00000000       0.00000000 </v>
     <v>       0.00000000       9.00000000       0.00000000 </v>
     <v>       0.00000000       0.00000000      10.00000000 </v>
    </varray>
    <i name="volume">    720.00000000 </i>
    <varray name="rec_basis" >
     <v>       0.12500000       0.00000000       0.00000000 </v>
     <v>       0.00000000       0.11111111       0.00000000 </v>
     <v>       0.00000000       0.00000000       0.10000000 </v>
    </varray>
   </crystal>
   <varray name="positions" >
    <v>       0.60000000       0.60000000       0.60000000 </v>
    <v>       0.50000000       0.50000000       0.50000000 </v>
   </varray>
  </structure>
  <varray name="forces" >
   <v>      11.39087905      12.80171639      14.21438812 </v>
   <v>     -11.39087905     -12.80171639     -14.21438812 </v>
  </varray>
  <varray name="stress" >
   <v>      20.11423224      22.81752781      25.34606637 </v>
   <v>      22.81752781      25.45199110      28.49070238 </v>
   <v>      25.34606634      28.49070235      31.43161402 </v>
  </varray>
  <energy>
   <i name="e_fr_energy">     -1.98152129 </i>
   <i name="e_wo_entrp">     -1.98152129 </i>
   <i name="e_0_energy">     -1.98152129 </i>
  </energy>
  <time name="totalsc">  174.00   29.42</time>
 </calculation>
 <calculation>
  <scstep>
   <time name="dav">    5.84    0.84</time>
   <time name="total">   10.29    1.48</time>
   <energy>
    <i name="alphaZ">      3.62109549 </i>
    <i name="ewald">   -303.68104810 </i>
    <i name="hartreedc">   -958.98382459 </i>
    <i name="XCdc">     73.05403641 </i>
    <i name="pawpsdc">   1073.12919073 </i>
    <i name="pawaedc">  -1073.00078098 </i>
    <i name="eentropy">     -0.00000000 </i>
    <i name="bandstr">   -230.82499388 </i>
    <i name="atom">   1434.20279271 </i>
    <i name="e_fr_energy">     17.51646781 </i>
    <i name="e_wo_entrp">     17.51646781 </i>
    <i name="e_0_energy">     17.51646781 </i>
   </energy>
  </scstep>
  <scstep>
   <time name="diag">    0.53    0.08</time>
   <time name="diis">    1.11    0.29</time>
   <time name="orth">    0.04    0.02</time>
   <time name="total">    5.92    1.01</time>
   <energy>
    <i name="e_fr_energy">     -1.67140045 </i>
    <i name="e_wo_entrp">     -1.67140045 </i>
    <i name="e_0_energy">     -1.67140045 </i>
   </energy>
  </scstep>
  <scstep>
   <time name="diag">    0.55    0.08</time>
   <time name="diis">    1.27    0.37</time>
   <time name="orth">    0.04    0.02</time>
   <time name="total">    6.04    1.09</time>
   <energy>
    <i name="e_fr_energy">     -5.60527686 </i>
    <i name="e_wo_entrp">     -5.60527686 </i>
    <i name="e_0_energy">     -5.60527686 </i>
   </energy>
  </scstep>
  <scstep>
   <time name="diag">    0.55    0.08</time>
   <time name="diis">    1.17    0.37</time>
   <time name="orth">    0.04    0.02</time>
   <time name="total">    5.97    1.09</time>
   <energy>
    <i name="e_fr_energy">     -4.67115456 </i>
    <i name="e_wo_entrp">     -4.67115456 </i>
    <i name="e_0_energy">     -4.67115456 </i>
   </energy>
  </scstep>
  <scstep>
   <time name="diag">    0.55    0.08</time>
   <time name="diis">    1.30    0.39</time>
   <time name="orth">    0.04    0.02</time>
   <time name="total">    6.11    1.12</time>
   <energy>
    <i name="e_fr_energy">     -4.96447476 </i>
    <i name="e_wo_entrp">     -4.96447476 </i>
    <i name="e_0_energy">     -4.96447476 </i>
   </energy>
  </scstep>
  <scstep>
   <time name="diag">    0.55    0.08</time>
   <time name="diis">    1.31    0.41</time>
   <time name="orth">    0.04    0.02</time>
   <time name="total">    6.14    1.13</time>
   <energy>
    <i name="e_fr_energy">     -5.65704390 </i>
    <i name="e_wo_entrp">     -5.65704390 </i>
    <i name="e_0_energy">     -5.65704390 </i>
   </energy>
  </scstep>
  <scstep>
   <time name="diag">    0.53    0.08</time>
   <time name="diis">    1.22    0.35</time>
   <time name="orth">    0.04    0.02</time>
   <time name="total">    6.10    1.08</time>
   <energy>
    <i name="e_fr_energy">     -6.52554268 </i>
    <i name="e_wo_entrp">     -6.52554268 </i>
    <i name="e_0_energy">     -6.52554268 </i>
   </energy>
  </scstep>
  <scstep>
   <time name="diag">    0.55    0.08</time>
   <time name="diis">    1.26    0.44</time>
   <time name="orth">    0.04    0.02</time>
   <time name="total">    6.30    1.20</time>
   <energy>
    <i name="e_fr_energy">     -5.66686666 </i>
    <i name="e_wo_entrp">     -5.62461173 </i>
    <i name="e_0_energy">     -5.64573920 </i>
   </energy>
  </scstep>
  <scstep>
   <time name="diag">    0.55    0.08</time>
   <time name="diis">    1.53    0.51</time>
   <time name="orth">    0.04    0.02</time>
   <time name="total">    6.43    1.25</time>
   <energy>
    <i name="e_fr_energy">     -5.90640716 </i>
    <i name="e_wo_entrp">     -5.85290736 </i>
    <i name="e_0_energy">     -5.87965726 </i>
   </energy>
  </scstep>
  <scstep>
   <time name="diag">    0.55    0.08</time>
   <time name="diis">    1.47    0.51</time>
   <time name="orth">    0.04    0.02</time>
   <time name="total">    6.43    1.26</time>
   <energy>
    <i name="e_fr_energy">     -6.08883997 </i>
    <i name="e_wo_entrp">     -6.03384324 </i>
    <i name="e_0_energy">     -6.06134160 </i>
   </energy>
  </scstep>
  <scstep>
   <time name="diag">    0.55    0.08</time>
   <time name="diis">    1.52    0.51</time>
   <time name="orth">    0.04    0.02</time>
   <time name="total">    6.39    1.24</time>
   <energy>
    <i name="e_fr_energy">     -5.78188759 </i>
    <i name="e_wo_entrp">     -5.72544736 </i>
    <i name="e_0_energy">     -5.75366747 </i>
   </energy>
  </scstep>
  <scstep>
   <time name="diag">    0.55    0.08</time>
   <time name="diis">    1.50    0.54</time>
   <time name="orth">    0.04    0.02</time>
   <time name="total">    6.50    1.29</time>
   <energy>
    <i name="e_fr_energy">     -5.81533521 </i>
    <i name="e_wo_entrp">     -5.75869756 </i>
    <i name="e_0_energy">     -5.78701638 </i>
   </energy>
  </scstep>
  <scstep>
   <time name="diag">    0.55    0.08</time>
   <time name="diis">    1.51    0.50</time>
   <time name="orth">    0.04    0.02</time>
   <time name="total">    6.37    1.23</time>
   <energy>
    <i name="e_fr_energy">     -5.65624507 </i>
    <i name="e_wo_entrp">     -5.59812243 </i>
    <i name="e_0_energy">     -5.62718375 </i>
   </energy>
  </scstep>
  <scstep>
   <time name="diag">    0.55    0.08</time>
   <time name="diis">    1.51    0.52</time>
   <time name="orth">    0.04    0.02</time>
   <time name="total">    6.43    1.26</time>
   <energy>
    <i name="e_fr_energy">     -5.59191450 </i>
    <i name="e_wo_entrp">     -5.53244848 </i>
    <i name="e_0_energy">     -5.56218149 </i>
   </energy>
  </scstep>
  <scstep>
   <time name="diag">    0.55    0.08</time>
   <time name="diis">    1.49    0.48</time>
   <time name="orth">    0.04    0.02</time>
   <time name="total">    6.36    1.22</time>
   <energy>
    <i name="e_fr_energy">     -5.55030779 </i>
    <i name="e_wo_entrp">     -5.49032768 </i>
    <i name="e_0_energy">     -5.52031774 </i>
   </energy>
  </scstep>
  <scstep>
   <time name="diag">    0.55    0.08</time>
   <time name="diis">    1.50    0.49</time>
   <time name="orth">    0.04    0.02</time>
   <time name="total">    6.37    1.22</time>
   <energy>
    <i name="e_fr_energy">     -5.50748793 </i>
    <i name="e_wo_entrp">     -5.44759872 </i>
    <i name="e_0_energy">     -5.47754333 </i>
   </energy>
  </scstep>
  <scstep>
   <time name="diag">    0.55    0.08</time>
   <time name="diis">    1.47    0.47</time>
   <time name="orth">    0.04    0.02</time>
   <time name="total">    6.36    1.21</time>
   <energy>
    <i name="e_fr_energy">     -5.15387344 </i>
    <i name="e_wo_entrp">     -5.12625627 </i>
    <i name="e_0_energy">     -5.14006485 </i>
   </energy>
  </scstep>
  <scstep>
   <time name="diag">    0.55    0.08</time>
   <time name="diis">    1.58    0.53</time>
   <time name="orth">    0.04    0.02</time>
   <time name="total">    6.49    1.27</time>
   <energy>
    <i name="e_fr_energy">     -6.90737081 </i>
    <i name="e_wo_entrp">     -6.85299976 </i>
    <i name="e_0_energy">     -6.88018529 </i>
   </energy>
  </scstep>
  <scstep>
   <time name="diag">    0.55    0.08</time>
   <time name="diis">    1.53    0.51</time>
   <time name="orth">    0.04    0.02</time>
   <time name="total">    6.46    1.25</time>
   <energy>
    <i name="e_fr_energy">     -4.98088245 </i>
    <i name="e_wo_entrp">     -4.95167448 </i>
    <i name="e_0_energy">     -4.96627847 </i>
   </energy>
  </scstep>
  <scstep>
   <time name="diag">    0.54    0.08</time>
   <time name="diis">    1.53    0.51</time>
   <time name="orth">    0.04    0.02</time>
   <time name="total">    6.46    1.25</time>
   <energy>
    <i name="e_fr_energy">     -4.66431963 </i>
    <i name="e_wo_entrp">     -4.66431963 </i>
    <i name="e_0_energy">     -4.66431963 </i>
   </energy>
  </scstep>
  <scstep>
   <time name="diag">    0.54    0.08</time>
   <time name="diis">    1.50    0.48</time>
   <time name="orth">    0.04    0.02</time>
   <time name="total">    6.42    1.22</time>
   <energy>
    <i name="e_fr_energy">     -4.80308933 </i>
    <i name="e_wo_entrp">     -4.80308933 </i>
    <i name="e_0_energy">     -4.80308933 </i>
   </energy>
  </scstep>
  <scstep>
   <time name="diag">    0.54    0.08</time>
   <time name="diis">    1.42    0.45</time>
   <time name="orth">    0.04    0.02</time>
   <time name="total">    6.36    1.19</time>
   <energy>
    <i name="e_fr_energy">     -5.04147555 </i>
    <i name="e_wo_entrp">     -5.04147555 </i>
    <i name="e_0_energy">     -5.04147555 </i>
   </energy>
  </scstep>
  <scstep>
   <time name="diag">    0.54    0.08</time>
   <time name="diis">    1.39    0.43</time>
   <time name="orth">    0.04    0.02</time>
   <time name="total">    6.34    1.18</time>
   <energy>
    <i name="e_fr_energy">     -5.17807331 </i>
    <i name="e_wo_entrp">     -5.17807331 </i>
    <i name="e_0_energy">     -5.17807331 </i>
   </energy>
  </scstep>
  <scstep>
   <time name="diag">    0.55    0.08</time>
   <time name="diis">    1.34    0.42</time>
   <time name="orth">    0.04    0.02</time>
   <time name="total">    6.33    1.17</time>
   <energy>
    <i name="e_fr_energy">     -5.27367013 </i>
    <i name="e_wo_entrp">     -5.27367013 </i>
    <i name="e_0_energy">     -5.27367013 </i>
   </energy>
  </scstep>
  <scstep>
   <time name="diag">    0.54    0.08</time>
   <time name="diis">    1.40    0.44</time>
   <time name="orth">    0.04    0.02</time>
   <time name="total">    6.39    1.19</time>
   <energy>
    <i name="e_fr_energy">     -5.10675956 </i>
    <i name="e_wo_entrp">     -5.10675956 </i>
    <i name="e_0_energy">     -5.10675956 </i>
   </energy>
  </scstep>
  <scstep>
   <time name="diag">    0.54    0.08</time>
   <time name="diis">    1.47    0.48</time>
   <time name="orth">    0.04    0.02</time>
   <time name="total">    6.50    1.23</time>
   <energy>
    <i name="e_fr_energy">     -5.01161375 </i>
    <i name="e_wo_entrp">     -5.01161375 </i>
    <i name="e_0_energy">     -5.01161375 </i>
   </energy>
  </scstep>
  <scstep>
   <time name="diag">    0.54    0.08</time>
   <time name="diis">    1.38    0.43</time>
   <time name="orth">    0.04    0.02</time>
   <time name="total">    6.45    1.19</time>
   <energy>
    <i name="e_fr_energy">     -4.88242136 </i>
    <i name="e_wo_entrp">     -4.88242136 </i>
    <i name="e_0_energy">     -4.88242136 </i>
   </energy>
  </scstep>
  <scstep>
   <time name="diag">    0.55    0.08</time>
   <time name="diis">    1.38    0.43</time>
   <time name="orth">    0.04    0.02</time>
   <time name="total">    6.48    1.20</time>
   <energy>
    <i name="e_fr_energy">     -4.76999335 </i>
    <i name="e_wo_entrp">     -4.76999335 </i>
    <i name="e_0_energy">     -4.76999335 </i>
   </energy>
  </scstep>
  <scstep>
   <time name="diag">    0.54    0.08</time>
   <time name="diis">    1.31    0.40</time>
   <time name="orth">    0.04    0.02</time>
   <time name="total">    6.48    1.17</time>
   <energy>
    <i name="e_fr_energy">     -4.77135192 </i>
    <i name="e_wo_entrp">     -4.77135192 </i>
    <i name="e_0_energy">     -4.77135192 </i>
   </energy>
  </scstep>
  <scstep>
   <time name="diag">    0.54    0.08</time>
   <time name="diis">    1.14    0.31</time>
   <time name="orth">    0.04    0.02</time>
   <time name="total">    6.36    1.09</time>
   <energy>
    <i name="e_fr_energy">     -4.80588585 </i>
    <i name="e_wo_entrp">     -4.80588585 </i>
    <i name="e_0_energy">     -4.80588585 </i>
   </energy>
  </scstep>
  <scstep>
   <time name="diag">    0.55    0.08</time>
   <time name="diis">    1.27    0.38</time>
   <time name="orth">    0.04    0.02</time>
   <time name="total">    6.51    1.16</time>
   <energy>
    <i name="e_fr_energy">     -4.81918676 </i>
    <i name="e_wo_entrp">     -4.81918676 </i>
    <i name="e_0_energy">     -4.81918676 </i>
   </energy>
  </scstep>
  <scstep>
   <time name="diag">    0.55    0.08</time>
   <time name="diis">    1.21    0.36</time>
   <time name="orth">    0.04    0.02</time>
   <time name="total">    6.48    1.15</time>
   <energy>
    <i name="e_fr_energy">     -4.77509246 </i>
    <i name="e_wo_entrp">     -4.77509246 </i>
    <i name="e_0_energy">     -4.77509246 </i>
   </energy>
  </scstep>
  <scstep>
   <time name="diag">    0.53    0.08</time>
   <time name="diis">    1.29    0.38</time>
   <time name="orth">    0.04    0.02</time>
   <time name="total">    6.64    1.18</time>
   <energy>
    <i name="e_fr_energy">     -4.73737423 </i>
    <i name="e_wo_entrp">     -4.73737423 </i>
    <i name="e_0_energy">     -4.73737423 </i>
   </energy>
  </scstep>
  <scstep>
   <time name="diag">    0.55    0.08</time>
   <time name="diis">    1.33    0.42</time>
   <time name="orth">    0.04    0.02</time>
   <time name="total">    6.77    1.23</time>
   <energy>
    <i name="e_fr_energy">     -4.72554165 </i>
    <i name="e_wo_entrp">     -4.72554165 </i>
    <i name="e_0_energy">     -4.72554165 </i>
   </energy>
  </scstep>
  <scstep>
   <time name="diag">    0.55    0.08</time>
   <time name="diis">    1.23    0.41</time>
   <time name="orth">    0.04    0.02</time>
   <time name="total">    6.72    1.23</time>
   <energy>
    <i name="e_fr_energy">     -4.70300514 </i>
    <i name="e_wo_entrp">     -4.70300514 </i>
    <i name="e_0_energy">     -4.70300514 </i>
   </energy>
  </scstep>
  <scstep>
   <time name="diag">    0.55    0.08</time>
   <time name="diis">    1.44    0.47</time>
   <time name="orth">    0.04    0.02</time>
   <time name="total">    6.82    1.27</time>
   <energy>
    <i name="e_fr_energy">     -4.66871174 </i>
    <i name="e_wo_entrp">     -4.66871174 </i>
    <i name="e_0_energy">     -4.66871174 </i>
   </energy>
  </scstep>
  <scstep>
   <time name="diag">    0.55    0.08</time>
   <time name="diis">    1.43    0.47</time>
   <time name="orth">    0.04    0.02</time>
   <time name="total">    6.83    1.27</time>
   <energy>
    <i name="e_fr_energy">     -4.66110729 </i>
    <i name="e_wo_entrp">     -4.66110729 </i>
    <i name="e_0_energy">     -4.66110729 </i>
   </energy>
  </scstep>
  <scstep>
   <time name="diag">    0.55    0.08</time>
   <time name="diis">    1.34    0.43</time>
   <time name="orth">    0.04    0.02</time>
   <time name="total">    6.79    1.24</time>
   <energy>
    <i name="e_fr_energy">     -4.66084820 </i>
    <i name="e_wo_entrp">     -4.66084820 </i>
    <i name="e_0_energy">     -4.66084820 </i>
   </energy>
  </scstep>
  <scstep>
   <time name="diag">    0.56    0.08</time>
   <time name="diis">    1.32    0.43</time>
   <time name="orth">    0.04    0.02</time>
   <time name="total">    6.82    1.25</time>
   <energy>
    <i name="e_fr_energy">     -4.66206258 </i>
    <i name="e_wo_entrp">     -4.66206258 </i>
    <i name="e_0_energy">     -4.66206258 </i>
   </energy>
  </scstep>
  <scstep>
   <time name="diag">    0.55    0.08</time>
   <time name="diis">    1.35    0.42</time>
   <time name="orth">    0.04    0.02</time>
   <time name="total">    6.81    1.24</time>
   <energy>
    <i name="e_fr_energy">     -4.66110613 </i>
    <i name="e_wo_entrp">     -4.66110613 </i>
    <i name="e_0_energy">     -4.66110613 </i>
   </energy>
  </scstep>
  <scstep>
   <time name="diag">    0.55    0.08</time>
   <time name="diis">    1.43    0.47</time>
   <time name="orth">    0.04    0.02</time>
   <time name="total">    6.92    1.29</time>
   <energy>
    <i name="e_fr_energy">     -4.66121638 </i>
    <i name="e_wo_entrp">     -4.66121638 </i>
    <i name="e_0_energy">     -4.66121638 </i>
   </energy>
  </scstep>
  <scstep>
   <time name="diag">    0.55    0.08</time>
   <time name="diis">    1.36    0.43</time>
   <time name="orth">    0.04    0.02</time>
   <time name="total">    6.91    1.26</time>
   <energy>
    <i name="e_fr_energy">     -4.66178301 </i>
    <i name="e_wo_entrp">     -4.66178301 </i>
    <i name="e_0_energy">     -4.66178301 </i>
   </energy>
  </scstep>
  <scstep>
   <time name="diag">    0.55    0.08</time>
   <time name="diis">    1.34    0.45</time>
   <time name="orth">    0.04    0.02</time>
   <time name="total">    7.14    1.31</time>
   <energy>
    <i name="e_fr_energy">     -4.66186844 </i>
    <i name="e_wo_entrp">     -4.66186844 </i>
    <i name="e_0_energy">     -4.66186844 </i>
   </energy>
  </scstep>
  <scstep>
   <time name="diag">    0.55    0.08</time>
   <time name="diis">    1.41    0.47</time>
   <time name="orth">    0.04    0.02</time>
   <time name="total">    7.09    1.32</time>
   <energy>
    <i name="e_fr_energy">     -4.65970597 </i>
    <i name="e_wo_entrp">     -4.65970597 </i>
    <i name="e_0_energy">     -4.65970597 </i>
   </energy>
  </scstep>
  <scstep>
   <time name="diag">    0.55    0.08</time>
   <time name="diis">    1.30    0.40</time>
   <time name="orth">    0.04    0.02</time>
   <time name="total">    6.97    1.25</time>
   <energy>
    <i name="e_fr_energy">     -4.65790854 </i>
    <i name="e_wo_entrp">     -4.65790854 </i>
    <i name="e_0_energy">     -4.65790854 </i>
   </energy>
  </scstep>
  <scstep>
   <time name="diag">    0.55    0.08</time>
   <time name="diis">    1.40    0.46</time>
   <time name="orth">    0.04    0.02</time>
   <time name="total">    7.07    1.30</time>
   <energy>
    <i name="e_fr_energy">     -4.66224636 </i>
    <i name="e_wo_entrp">     -4.66224636 </i>
    <i name="e_0_energy">     -4.66224636 </i>
   </energy>
  </scstep>
  <scstep>
   <time name="diag">    0.55    0.08</time>
   <time name="diis">    1.48    0.49</time>
   <time name="orth">    0.04    0.02</time>
   <time name="total">    7.03    1.32</time>
   <energy>
    <i name="e_fr_energy">     -4.66939611 </i>
    <i name="e_wo_entrp">     -4.66939611 </i>
    <i name="e_0_energy">     -4.66939611 </i>
   </energy>
  </scstep>
  <scstep>
   <time name="diag">    0.55    0.08</time>
   <time name="diis">    1.45    0.52</time>
   <time name="orth">    0.04    0.02</time>
   <time name="total">    7.15    1.37</time>
   <energy>
    <i name="e_fr_energy">     -4.67273770 </i>
    <i name="e_wo_entrp">     -4.67273770 </i>
    <i name="e_0_energy">     -4.67273770 </i>
   </energy>
  </scstep>
  <scstep>
   <time name="diag">    0.55    0.08</time>
   <time name="diis">    1.55    0.53</time>
   <time name="orth">    0.04    0.02</time>
   <time name="total">    7.19    1.37</time>
   <energy>
    <i name="e_fr_energy">     -4.67452565 </i>
    <i name="e_wo_entrp">     -4.67452565 </i>
    <i name="e_0_energy">     -4.67452565 </i>
   </energy>
  </scstep>
  <scstep>
   <time name="diag">    0.55    0.08</time>
   <time name="diis">    1.12    0.43</time>
   <time name="orth">    0.04    0.02</time>
   <time name="total">    7.08    1.32</time>
   <energy>
    <i name="e_fr_energy">     -4.67613105 </i>
    <i name="e_wo_entrp">     -4.67613105 </i>
    <i name="e_0_energy">     -4.67613105 </i>
   </energy>
  </scstep>
  <scstep>
   <time name="diag">    0.55    0.08</time>
   <time name="diis">    1.34    0.42</time>
   <time name="orth">    0.04    0.02</time>
   <time name="total">    7.07    1.28</time>
   <energy>
    <i name="e_fr_energy">     -4.67628852 </i>
    <i name="e_wo_entrp">     -4.67628852 </i>
    <i name="e_0_energy">     -4.67628852 </i>
   </energy>
  </scstep>
  <scstep>
   <time name="diag">    0.55    0.08</time>
   <time name="diis">    1.29    0.44</time>
   <time name="orth">    0.04    0.02</time>
   <time name="total">    6.95    1.28</time>
   <energy>
    <i name="e_fr_energy">     -4.67714925 </i>
    <i name="e_wo_entrp">     -4.67714925 </i>
    <i name="e_0_energy">     -4.67714925 </i>
   </energy>
  </scstep>
  <scstep>
   <time name="diag">    0.55    0.08</time>
   <time name="diis">    1.34    0.42</time>
   <time name="orth">    0.04    0.02</time>
   <time name="total">    6.93    1.26</time>
   <energy>
    <i name="e_fr_energy">     -4.67760552 </i>
    <i name="e_wo_entrp">     -4.67760552 </i>
    <i name="e_0_energy">     -4.67760552 </i>
   </energy>
  </scstep>
  <scstep>
   <time name="diag">    0.55    0.08</time>
   <time name="diis">    1.29    0.39</time>
   <time name="orth">    0.04    0.02</time>
   <time name="total">    6.92    1.23</time>
   <energy>
    <i name="e_fr_energy">     -4.67748299 </i>
    <i name="e_wo_entrp">     -4.67748299 </i>
    <i name="e_0_energy">     -4.67748299 </i>
   </energy>
  </scstep>
  <scstep>
   <time name="diag">    0.55    0.08</time>
   <time name="diis">    1.35    0.42</time>
   <time name="orth">    0.04    0.02</time>
   <time name="total">    7.00    1.26</time>
   <energy>
    <i name="e_fr_energy">     -4.67670654 </i>
    <i name="e_wo_entrp">     -4.67670654 </i>
    <i name="e_0_energy">     -4.67670654 </i>
   </energy>
  </scstep>
  <scstep>
   <time name="diag">    0.55    0.08</time>
   <time name="diis">    1.37    0.43</time>
   <time name="orth">    0.04    0.02</time>
   <time name="total">    6.99    1.27</time>
   <energy>
    <i name="e_fr_energy">     -4.67631987 </i>
    <i name="e_wo_entrp">     -4.67631987 </i>
    <i name="e_0_energy">     -4.67631987 </i>
   </energy>
  </scstep>
  <scstep>
   <time name="diag">    0.55    0.08</time>
   <time name="diis">    1.49    0.49</time>
   <time name="orth">    0.04    0.02</time>
   <time name="total">    7.02    1.32</time>
   <energy>
    <i name="e_fr_energy">     -4.67593775 </i>
    <i name="e_wo_entrp">     -4.67593775 </i>
    <i name="e_0_energy">     -4.67593775 </i>
   </energy>
  </scstep>
  <scstep>
   <time name="diag">    0.55    0.08</time>
   <time name="diis">    1.40    0.46</time>
   <time name="orth">    0.04    0.02</time>
   <time name="total">    6.99    1.29</time>
   <energy>
    <i name="e_fr_energy">     -4.67598097 </i>
    <i name="e_wo_entrp">     -4.67598097 </i>
    <i name="e_0_energy">     -4.67598097 </i>
   </energy>
  </scstep>
  <scstep>
   <time name="diag">    0.55    0.08</time>
   <time name="diis">    1.34    0.42</time>
   <time name="orth">    0.04    0.02</time>
   <time name="total">    6.93    1.25</time>
   <energy>
    <i name="e_fr_energy">     -4.67598430 </i>
    <i name="e_wo_entrp">     -4.67598430 </i>
    <i name="e_0_energy">     -4.67598430 </i>
   </energy>
  </scstep>
  <scstep>
   <time name="diag">    0.55    0.08</time>
   <time name="diis">    1.32    0.41</time>
   <time name="orth">    0.04    0.02</time>
   <time name="total">    5.82    1.07</time>
   <energy>
    <i name="alphaZ">      3.62109549 </i>
    <i name="ewald">   -303.68104810 </i>
    <i name="hartreedc">   -954.78788746 </i>
    <i name="XCdc">     72.57683066 </i>
    <i name="pawpsdc">    967.60122065 </i>
    <i name="pawaedc">   -969.28382287 </i>
    <i name="eentropy">     -0.00000000 </i>
    <i name="bandstr">   -254.92517522 </i>
    <i name="atom">   1434.20279271 </i>
    <i name="e_fr_energy">     -4.67599413 </i>
    <i name="e_wo_entrp">     -4.67599413 </i>
    <i name="e_0_energy">     -4.67599413 </i>
   </energy>
  </scstep>
  <structure>
   <crystal>
    <varray name="basis" >
     <v>       8.00000000       0.00000000       0.00000000 </v>
     <v>       0.00000000       9.00000000       0.00000000 </v>
     <v>       0.00000000       0.00000000      10.00000000 </v>
    </varray>
    <i name="volume">    720.00000000 </i>
    <varray name="rec_basis" >
     <v>       0.12500000       0.00000000       0.00000000 </v>
     <v>       0.00000000       0.11111111       0.00000000 </v>
     <v>       0.00000000       0.00000000       0.10000000 </v>
    </varray>
   </crystal>
   <varray name="positions" >
    <v>       0.66869078       0.66862098       0.66857398 </v>
    <v>       0.43130922       0.43137902       0.43142602 </v>
   </varray>
  </structure>
  <varray name="forces" >
   <v>      -0.39625230      -0.50372180      -0.61341928 </v>
   <v>       0.39625230       0.50372180       0.61341928 </v>
  </varray>
  <varray name="stress" >
   <v>      -2.24958184      -1.71171230      -1.97807214 </v>
   <v>      -1.71171232      -3.42744958      -2.43940371 </v>
   <v>      -1.97807213      -2.43940371      -4.63963573 </v>
  </varray>
  <energy>
   <i name="e_fr_energy">     -4.67599413 </i>
   <i name="e_wo_entrp">     -4.67599413 </i>
   <i name="e_0_energy">     -4.67599413 </i>
  </energy>
  <time name="totalsc">  422.88   77.10</time>
 </calculation>
 <calculation>
  <scstep>
   <time name="dav">    5.00    0.73</time>
   <time name="total">    9.54    1.39</time>
   <energy>
    <i name="alphaZ">      3.62109549 </i>
    <i name="ewald">   -299.18711032 </i>
    <i name="hartreedc">   -959.22414406 </i>
    <i name="XCdc">     72.57365906 </i>
    <i name="pawpsdc">    967.58992930 </i>
    <i name="pawaedc">   -969.27623329 </i>
    <i name="eentropy">     -0.00000000 </i>
    <i name="bandstr">   -255.01751211 </i>
    <i name="atom">   1434.20279271 </i>
    <i name="e_fr_energy">     -4.71752323 </i>
    <i name="e_wo_entrp">     -4.71752323 </i>
    <i name="e_0_energy">     -4.71752323 </i>
   </energy>
  </scstep>
  <scstep>
   <time name="diag">    0.55    0.08</time>
   <time name="diis">    1.15    0.32</time>
   <time name="orth">    0.04    0.02</time>
   <time name="total">    6.10    1.06</time>
   <energy>
    <i name="e_fr_energy">     -4.74777712 </i>
    <i name="e_wo_entrp">     -4.74777712 </i>
    <i name="e_0_energy">     -4.74777712 </i>
   </energy>
  </scstep>
  <scstep>
   <time name="diag">    0.55    0.08</time>
   <time name="diis">    1.24    0.36</time>
   <time name="orth">    0.04    0.02</time>
   <time name="total">    6.19    1.11</time>
   <energy>
    <i name="e_fr_energy">     -4.74879591 </i>
    <i name="e_wo_entrp">     -4.74879591 </i>
    <i name="e_0_energy">     -4.74879591 </i>
   </energy>
  </scstep>
  <scstep>
   <time name="diag">    0.54    0.08</time>
   <time name="diis">    1.28    0.38</time>
   <time name="orth">    0.04    0.02</time>
   <time name="total">    6.22    1.12</time>
   <energy>
    <i name="e_fr_energy">     -4.74922453 </i>
    <i name="e_wo_entrp">     -4.74922453 </i>
    <i name="e_0_energy">     -4.74922453 </i>
   </energy>
  </scstep>
  <scstep>
   <time name="diag">    0.54    0.08</time>
   <time name="diis">    1.28    0.38</time>
   <time name="orth">    0.04    0.02</time>
   <time name="total">    6.26    1.13</time>
   <energy>
    <i name="e_fr_energy">     -4.74937274 </i>
    <i name="e_wo_entrp">     -4.74937274 </i>
    <i name="e_0_energy">     -4.74937274 </i>
   </energy>
  </scstep>
  <scstep>
   <time name="diag">    0.53    0.08</time>
   <time name="diis">    1.27    0.37</time>
   <time name="orth">    0.04    0.02</time>
   <time name="total">    6.23    1.11</time>
   <energy>
    <i name="e_fr_energy">     -4.74950351 </i>
    <i name="e_wo_entrp">     -4.74950351 </i>
    <i name="e_0_energy">     -4.74950351 </i>
   </energy>
  </scstep>
  <scstep>
   <time name="diag">    0.54    0.08</time>
   <time name="diis">    1.25    0.36</time>
   <time name="orth">    0.04    0.02</time>
   <time name="total">    6.23    1.11</time>
   <energy>
    <i name="e_fr_energy">     -4.74965999 </i>
    <i name="e_wo_entrp">     -4.74965999 </i>
    <i name="e_0_energy">     -4.74965999 </i>
   </energy>
  </scstep>
  <scstep>
   <time name="diag">    0.53    0.08</time>
   <time name="diis">    1.32    0.39</time>
   <time name="orth">    0.04    0.02</time>
   <time name="total">    6.33    1.14</time>
   <energy>
    <i name="e_fr_energy">     -4.74985482 </i>
    <i name="e_wo_entrp">     -4.74985482 </i>
    <i name="e_0_energy">     -4.74985482 </i>
   </energy>
  </scstep>
  <scstep>
   <time name="diag">    0.53    0.08</time>
   <time name="diis">    1.27    0.37</time>
   <time name="orth">    0.04    0.02</time>
   <time name="total">    6.27    1.12</time>
   <energy>
    <i name="e_fr_energy">     -4.74993688 </i>
    <i name="e_wo_entrp">     -4.74993688 </i>
    <i name="e_0_energy">     -4.74993688 </i>
   </energy>
  </scstep>
  <scstep>
   <time name="diag">    0.53    0.08</time>
   <time name="diis">    1.24    0.35</time>
   <time name="orth">    0.04    0.02</time>
   <time name="total">    6.30    1.11</time>
   <energy>
    <i name="e_fr_energy">     -4.75006100 </i>
    <i name="e_wo_entrp">     -4.75006100 </i>
    <i name="e_0_energy">     -4.75006100 </i>
   </energy>
  </scstep>
  <scstep>
   <time name="diag">    0.53    0.08</time>
   <time name="diis">    1.27    0.37</time>
   <time name="orth">    0.04    0.02</time>
   <time name="total">    6.31    1.12</time>
   <energy>
    <i name="e_fr_energy">     -4.75008889 </i>
    <i name="e_wo_entrp">     -4.75008889 </i>
    <i name="e_0_energy">     -4.75008889 </i>
   </energy>
  </scstep>
  <scstep>
   <time name="diag">    0.55    0.08</time>
   <time name="diis">    1.33    0.41</time>
   <time name="orth">    0.04    0.02</time>
   <time name="total">    6.42    1.17</time>
   <energy>
    <i name="e_fr_energy">     -4.75011008 </i>
    <i name="e_wo_entrp">     -4.75011008 </i>
    <i name="e_0_energy">     -4.75011008 </i>
   </energy>
  </scstep>
  <scstep>
   <time name="diag">    0.55    0.08</time>
   <time name="diis">    1.22    0.35</time>
   <time name="orth">    0.04    0.02</time>
   <time name="total">    6.29    1.11</time>
   <energy>
    <i name="e_fr_energy">     -4.75011931 </i>
    <i name="e_wo_entrp">     -4.75011931 </i>
    <i name="e_0_energy">     -4.75011931 </i>
   </energy>
  </scstep>
  <scstep>
   <time name="diag">    0.55    0.08</time>
   <time name="diis">    1.20    0.34</time>
   <time name="orth">    0.04    0.02</time>
   <time name="total">    6.18    1.09</time>
   <energy>
    <i name="e_fr_energy">     -4.75012575 </i>
    <i name="e_wo_entrp">     -4.75012575 </i>
    <i name="e_0_energy">     -4.75012575 </i>
   </energy>
  </scstep>
  <scstep>
   <time name="diag">    0.55    0.08</time>
   <time name="diis">    1.15    0.31</time>
   <time name="orth">    0.04    0.02</time>
   <time name="total">    6.19    1.07</time>
   <energy>
    <i name="e_fr_energy">     -4.75012701 </i>
    <i name="e_wo_entrp">     -4.75012701 </i>
    <i name="e_0_energy">     -4.75012701 </i>
   </energy>
  </scstep>
  <scstep>
   <time name="diag">    0.55    0.08</time>
   <time name="diis">    1.09    0.28</time>
   <time name="orth">    0.04    0.02</time>
   <time name="total">    5.55    0.94</time>
   <energy>
    <i name="alphaZ">      3.62109549 </i>
    <i name="ewald">   -299.18711032 </i>
    <i name="hartreedc">   -959.50018006 </i>
    <i name="XCdc">     72.58449996 </i>
    <i name="pawpsdc">    967.71332128 </i>
    <i name="pawaedc">   -969.39966962 </i>
    <i name="eentropy">     -0.00000000 </i>
    <i name="bandstr">   -254.78487741 </i>
    <i name="atom">   1434.20279271 </i>
    <i name="e_fr_energy">     -4.75012796 </i>
    <i name="e_wo_entrp">     -4.75012796 </i>
    <i name="e_0_energy">     -4.75012796 </i>
   </energy>
  </scstep>
  <structure>
   <crystal>
    <varray name="basis" >
     <v>       8.00000000       0.00000000       0.00000000 </v>
     <v>       0.00000000       9.00000000       0.00000000 </v>
     <v>       0.00000000       0.00000000      10.00000000 </v>
    </varray>
    <i name="volume">    720.00000000 </i>
    <varray name="rec_basis" >
     <v>       0.12500000       0.00000000       0.00000000 </v>
     <v>       0.00000000       0.11111111       0.00000000 </v>
     <v>       0.00000000       0.00000000       0.10000000 </v>
    </varray>
   </crystal>
   <varray name="positions" >
    <v>       0.66606752       0.66600038       0.66595518 </v>
    <v>       0.43393248       0.43399962       0.43404482 </v>
   </varray>
  </structure>
  <varray name="forces" >
   <v>      -0.42133315      -0.53100373      -0.64287415 </v>
   <v>       0.42133315       0.53100373       0.64287415 </v>
  </varray>
  <varray name="stress" >
   <v>      -2.12502163      -1.78489156      -2.05775569 </v>
   <v>      -1.78489153      -3.29091186      -2.52810975 </v>
   <v>      -2.05775565      -2.52810974      -4.49681988 </v>
  </varray>
  <energy>
   <i name="e_fr_energy">     -4.75012796 </i>
   <i name="e_wo_entrp">     -4.75012796 </i>
   <i name="e_0_energy">     -4.75012796 </i>
  </energy>
  <time name="totalsc">  124.69   21.12</time>
 </calculation>
 <calculation>
  <scstep>
   <time name="dav">    4.29    0.62</time>
   <time name="total">    8.93    1.29</time>
   <energy>
    <i name="alphaZ">      3.62109549 </i>
    <i name="ewald">   -294.37512430 </i>
    <i name="hartreedc">   -964.24909503 </i>
    <i name="XCdc">     72.58182918 </i>
    <i name="pawpsdc">    967.71627930 </i>
    <i name="pawaedc">   -969.40270405 </i>
    <i name="eentropy">     -0.00000000 </i>
    <i name="bandstr">   -254.89104980 </i>
    <i name="atom">   1434.20279271 </i>
    <i name="e_fr_energy">     -4.79597650 </i>
    <i name="e_wo_entrp">     -4.79597650 </i>
    <i name="e_0_energy">     -4.79597650 </i>
   </energy>
  </scstep>
  <scstep>
   <time name="diag">    0.56    0.08</time>
   <time name="diis">    1.15    0.32</time>
   <time name="orth">    0.04    0.02</time>
   <time name="total">    6.07    1.06</time>
   <energy>
    <i name="e_fr_energy">     -4.82686205 </i>
    <i name="e_wo_entrp">     -4.82686205 </i>
    <i name="e_0_energy">     -4.82686205 </i>
   </energy>
  </scstep>
  <scstep>
   <time name="diag">    0.55    0.08</time>
   <time name="diis">    1.24    0.37</time>
   <time name="orth">    0.04    0.02</time>
   <time name="total">    6.18    1.11</time>
   <energy>
    <i name="e_fr_energy">     -4.82794618 </i>
    <i name="e_wo_entrp">     -4.82794618 </i>
    <i name="e_0_energy">     -4.82794618 </i>
   </energy>
  </scstep>
  <scstep>
   <time name="diag">    0.55    0.08</time>
   <time name="diis">    1.28    0.38</time>
   <time name="orth">    0.04    0.02</time>
   <time name="total">    6.22    1.12</time>
   <energy>
    <i name="e_fr_energy">     -4.82831936 </i>
    <i name="e_wo_entrp">     -4.82831936 </i>
    <i name="e_0_energy">     -4.82831936 </i>
   </energy>
  </scstep>
  <scstep>
   <time name="diag">    0.55    0.08</time>
   <time name="diis">    1.32    0.40</time>
   <time name="orth">    0.04    0.02</time>
   <time name="total">    6.27    1.14</time>
   <energy>
    <i name="e_fr_energy">     -4.82844675 </i>
    <i name="e_wo_entrp">     -4.82844675 </i>
    <i name="e_0_energy">     -4.82844675 </i>
   </energy>
  </scstep>
  <scstep>
   <time name="diag">    0.55    0.08</time>
   <time name="diis">    1.27    0.38</time>
   <time name="orth">    0.04    0.02</time>
   <time name="total">    6.24    1.12</time>
   <energy>
    <i name="e_fr_energy">     -4.82854421 </i>
    <i name="e_wo_entrp">     -4.82854421 </i>
    <i name="e_0_energy">     -4.82854421 </i>
   </energy>
  </scstep>
  <scstep>
   <time name="diag">    0.55    0.08</time>
   <time name="diis">    1.31    0.40</time>
   <time name="orth">    0.04    0.02</time>
   <time name="total">    6.31    1.15</time>
   <energy>
    <i name="e_fr_energy">     -4.82867349 </i>
    <i name="e_wo_entrp">     -4.82867349 </i>
    <i name="e_0_energy">     -4.82867349 </i>
   </energy>
  </scstep>
  <scstep>
   <time name="diag">    0.55    0.08</time>
   <time name="diis">    1.40    0.44</time>
   <time name="orth">    0.04    0.02</time>
   <time name="total">    6.38    1.19</time>
   <energy>
    <i name="e_fr_energy">     -4.82883799 </i>
    <i name="e_wo_entrp">     -4.82883799 </i>
    <i name="e_0_energy">     -4.82883799 </i>
   </energy>
  </scstep>
  <scstep>
   <time name="diag">    0.55    0.08</time>
   <time name="diis">    1.30    0.39</time>
   <time name="orth">    0.04    0.02</time>
   <time name="total">    6.29    1.14</time>
   <energy>
    <i name="e_fr_energy">     -4.82892343 </i>
    <i name="e_wo_entrp">     -4.82892343 </i>
    <i name="e_0_energy">     -4.82892343 </i>
   </energy>
  </scstep>
  <scstep>
   <time name="diag">    0.55    0.08</time>
   <time name="diis">    1.31    0.40</time>
   <time name="orth">    0.04    0.02</time>
   <time name="total">    6.31    1.15</time>
   <energy>
    <i name="e_fr_energy">     -4.82903403 </i>
    <i name="e_wo_entrp">     -4.82903403 </i>
    <i name="e_0_energy">     -4.82903403 </i>
   </energy>
  </scstep>
  <scstep>
   <time name="diag">    0.55    0.08</time>
   <time name="diis">    1.28    0.39</time>
   <time name="orth">    0.04    0.02</time>
   <time name="total">    6.29    1.15</time>
   <energy>
    <i name="e_fr_energy">     -4.82905555 </i>
    <i name="e_wo_entrp">     -4.82905555 </i>
    <i name="e_0_energy">     -4.82905555 </i>
   </energy>
  </scstep>
  <scstep>
   <time name="diag">    0.55    0.08</time>
   <time name="diis">    1.34    0.41</time>
   <time name="orth">    0.04    0.02</time>
   <time name="total">    6.36    1.16</time>
   <energy>
    <i name="e_fr_energy">     -4.82907504 </i>
    <i name="e_wo_entrp">     -4.82907504 </i>
    <i name="e_0_energy">     -4.82907504 </i>
   </energy>
  </scstep>
  <scstep>
   <time name="diag">    0.55    0.08</time>
   <time name="diis">    1.29    0.38</time>
   <time name="orth">    0.04    0.02</time>
   <time name="total">    6.31    1.13</time>
   <energy>
    <i name="e_fr_energy">     -4.82908407 </i>
    <i name="e_wo_entrp">     -4.82908407 </i>
    <i name="e_0_energy">     -4.82908407 </i>
   </energy>
  </scstep>
  <scstep>
   <time name="diag">    0.55    0.08</time>
   <time name="diis">    1.17    0.32</time>
   <time name="orth">    0.04    0.02</time>
   <time name="total">    6.19    1.07</time>
   <energy>
    <i name="e_fr_energy">     -4.82909071 </i>
    <i name="e_wo_entrp">     -4.82909071 </i>
    <i name="e_0_energy">     -4.82909071 </i>
   </energy>
  </scstep>
  <scstep>
   <time name="diag">    0.55    0.08</time>
   <time name="diis">    1.10    0.31</time>
   <time name="orth">    0.04    0.02</time>
   <time name="total">    6.18    1.07</time>
   <energy>
    <i name="e_fr_energy">     -4.82909268 </i>
    <i name="e_wo_entrp">     -4.82909268 </i>
    <i name="e_0_energy">     -4.82909268 </i>
   </energy>
  </scstep>
  <scstep>
   <time name="diag">    0.55    0.08</time>
   <time name="diis">    1.09    0.28</time>
   <time name="orth">    0.04    0.02</time>
   <time name="total">    5.55    0.94</time>
   <energy>
    <i name="alphaZ">      3.62109549 </i>
    <i name="ewald">   -294.37512430 </i>
    <i name="hartreedc">   -964.63762302 </i>
    <i name="XCdc">     72.59695030 </i>
    <i name="pawpsdc">    967.86007432 </i>
    <i name="pawaedc">   -969.54601512 </i>
    <i name="eentropy">     -0.00000000 </i>
    <i name="bandstr">   -254.55124382 </i>
    <i name="atom">   1434.20279271 </i>
    <i name="e_fr_energy">     -4.82909346 </i>
    <i name="e_wo_entrp">     -4.82909346 </i>
    <i name="e_0_energy">     -4.82909346 </i>
   </energy>
  </scstep>
  <structure>
   <crystal>
    <varray name="basis" >
     <v>       8.00000000       0.00000000       0.00000000 </v>
     <v>       0.00000000       9.00000000       0.00000000 </v>
     <v>       0.00000000       0.00000000      10.00000000 </v>
    </varray>
    <i name="volume">    720.00000000 </i>
    <varray name="rec_basis" >
     <v>       0.12500000       0.00000000       0.00000000 </v>
     <v>       0.00000000       0.11111111       0.00000000 </v>
     <v>       0.00000000       0.00000000       0.10000000 </v>
    </varray>
   </crystal>
   <varray name="positions" >
    <v>       0.66341479       0.66335035       0.66330696 </v>
    <v>       0.43658521       0.43664965       0.43669304 </v>
   </varray>
  </structure>
  <varray name="forces" >
   <v>      -0.44660078      -0.55905699      -0.67356179 </v>
   <v>       0.44660078       0.55905699       0.67356179 </v>
  </varray>
  <varray name="stress" >
   <v>      -2.19213591      -1.86098229      -2.14010095 </v>
   <v>      -1.86098227      -3.34572504      -2.61669414 </v>
   <v>      -2.14010092      -2.61669411      -4.53774750 </v>
  </varray>
  <energy>
   <i name="e_fr_energy">     -4.82909346 </i>
   <i name="e_wo_entrp">     -4.82909346 </i>
   <i name="e_0_energy">     -4.82909346 </i>
  </energy>
  <time name="totalsc">  123.76   21.15</time>
 </calculation>
 <calculation>
  <scstep>
   <time name="dav">    4.19    0.60</time>
   <time name="total">    8.56    1.23</time>
   <energy>
    <i name="alphaZ">      3.62109549 </i>
    <i name="ewald">   -206.62494778 </i>
    <i name="hartreedc">  -1046.31730177 </i>
    <i name="XCdc">     72.51556613 </i>
    <i name="pawpsdc">    967.85930698 </i>
    <i name="pawaedc">   -969.54530781 </i>
    <i name="eentropy">     -0.00000000 </i>
    <i name="bandstr">   -253.60234836 </i>
    <i name="atom">   1434.20279271 </i>
    <i name="e_fr_energy">      2.10885560 </i>
    <i name="e_wo_entrp">      2.10885560 </i>
    <i name="e_0_energy">      2.10885560 </i>
   </energy>
  </scstep>
  <scstep>
   <time name="diag">    0.55    0.08</time>
   <time name="diis">    1.16    0.32</time>
   <time name="orth">    0.04    0.02</time>
   <time name="total">    5.94    1.04</time>
   <energy>
    <i name="e_fr_energy">     -5.54204123 </i>
    <i name="e_wo_entrp">     -5.54204123 </i>
    <i name="e_0_energy">     -5.54204123 </i>
   </energy>
  </scstep>
  <scstep>
   <time name="diag">    0.55    0.08</time>
   <time name="diis">    1.15    0.32</time>
   <time name="orth">    0.04    0.02</time>
   <time name="total">    5.97    1.04</time>
   <energy>
    <i name="e_fr_energy">     -6.47760764 </i>
    <i name="e_wo_entrp">     -6.47760764 </i>
    <i name="e_0_energy">     -6.47760764 </i>
   </energy>
  </scstep>
  <scstep>
   <time name="diag">    0.55    0.08</time>
   <time name="diis">    1.23    0.37</time>
   <time name="orth">    0.04    0.02</time>
   <time name="total">    6.10    1.10</time>
   <energy>
    <i name="e_fr_energy">     -6.20518555 </i>
    <i name="e_wo_entrp">     -6.20518555 </i>
    <i name="e_0_energy">     -6.20518555 </i>
   </energy>
  </scstep>
  <scstep>
   <time name="diag">    0.55    0.08</time>
   <time name="diis">    1.30    0.39</time>
   <time name="orth">    0.04    0.02</time>
   <time name="total">    6.17    1.13</time>
   <energy>
    <i name="e_fr_energy">     -6.02719958 </i>
    <i name="e_wo_entrp">     -6.02719958 </i>
    <i name="e_0_energy">     -6.02719958 </i>
   </energy>
  </scstep>
  <scstep>
   <time name="diag">    0.55    0.08</time>
   <time name="diis">    1.38    0.43</time>
   <time name="orth">    0.04    0.02</time>
   <time name="total">    6.26    1.17</time>
   <energy>
    <i name="e_fr_energy">     -6.04484004 </i>
    <i name="e_wo_entrp">     -6.04484004 </i>
    <i name="e_0_energy">     -6.04484004 </i>
   </energy>
  </scstep>
  <scstep>
   <time name="diag">    0.55    0.08</time>
   <time name="diis">    1.30    0.39</time>
   <time name="orth">    0.04    0.02</time>
   <time name="total">    6.17    1.13</time>
   <energy>
    <i name="e_fr_energy">     -6.07765997 </i>
    <i name="e_wo_entrp">     -6.07765997 </i>
    <i name="e_0_energy">     -6.07765997 </i>
   </energy>
  </scstep>
  <scstep>
   <time name="diag">    0.54    0.08</time>
   <time name="diis">    1.24    0.37</time>
   <time name="orth">    0.04    0.02</time>
   <time name="total">    6.10    1.10</time>
   <energy>
    <i name="e_fr_energy">     -6.02795995 </i>
    <i name="e_wo_entrp">     -6.02795995 </i>
    <i name="e_0_energy">     -6.02795995 </i>
   </energy>
  </scstep>
  <scstep>
   <time name="diag">    0.55    0.08</time>
   <time name="diis">    1.33    0.41</time>
   <time name="orth">    0.04    0.02</time>
   <time name="total">    6.25    1.15</time>
   <energy>
    <i name="e_fr_energy">     -6.03751443 </i>
    <i name="e_wo_entrp">     -6.03751443 </i>
    <i name="e_0_energy">     -6.03751443 </i>
   </energy>
  </scstep>
  <scstep>
   <time name="diag">    0.55    0.08</time>
   <time name="diis">    1.25    0.37</time>
   <time name="orth">    0.04    0.02</time>
   <time name="total">    6.14    1.11</time>
   <energy>
    <i name="e_fr_energy">     -6.04513244 </i>
    <i name="e_wo_entrp">     -6.04513244 </i>
    <i name="e_0_energy">     -6.04513244 </i>
   </energy>
  </scstep>
  <scstep>
   <time name="diag">    0.56    0.08</time>
   <time name="diis">    1.23    0.37</time>
   <time name="orth">    0.04    0.02</time>
   <time name="total">    6.14    1.11</time>
   <energy>
    <i name="e_fr_energy">     -6.04467781 </i>
    <i name="e_wo_entrp">     -6.04467781 </i>
    <i name="e_0_energy">     -6.04467781 </i>
   </energy>
  </scstep>
  <scstep>
   <time name="diag">    0.55    0.08</time>
   <time name="diis">    1.26    0.37</time>
   <time name="orth">    0.04    0.02</time>
   <time name="total">    6.16    1.11</time>
   <energy>
    <i name="e_fr_energy">     -6.04715578 </i>
    <i name="e_wo_entrp">     -6.04715578 </i>
    <i name="e_0_energy">     -6.04715578 </i>
   </energy>
  </scstep>
  <scstep>
   <time name="diag">    0.55    0.08</time>
   <time name="diis">    1.31    0.40</time>
   <time name="orth">    0.04    0.02</time>
   <time name="total">    6.27    1.14</time>
   <energy>
    <i name="e_fr_energy">     -6.04766296 </i>
    <i name="e_wo_entrp">     -6.04766296 </i>
    <i name="e_0_energy">     -6.04766296 </i>
   </energy>
  </scstep>
  <scstep>
   <time name="diag">    0.55    0.08</time>
   <time name="diis">    1.33    0.41</time>
   <time name="orth">    0.04    0.02</time>
   <time name="total">    6.28    1.16</time>
   <energy>
    <i name="e_fr_energy">     -6.04861124 </i>
    <i name="e_wo_entrp">     -6.04861124 </i>
    <i name="e_0_energy">     -6.04861124 </i>
   </energy>
  </scstep>
  <scstep>
   <time name="diag">    0.55    0.08</time>
   <time name="diis">    1.41    0.45</time>
   <time name="orth">    0.04    0.02</time>
   <time name="total">    6.34    1.19</time>
   <energy>
    <i name="e_fr_energy">     -6.04902300 </i>
    <i name="e_wo_entrp">     -6.04902300 </i>
    <i name="e_0_energy">     -6.04902300 </i>
   </energy>
  </scstep>
  <scstep>
   <time name="diag">    0.55    0.08</time>
   <time name="diis">    1.11    0.41</time>
   <time name="orth">    0.04    0.02</time>
   <time name="total">    6.41    1.21</time>
   <energy>
    <i name="e_fr_energy">     -6.04921913 </i>
    <i name="e_wo_entrp">     -6.04921913 </i>
    <i name="e_0_energy">     -6.04921913 </i>
   </energy>
  </scstep>
  <scstep>
   <time name="diag">    0.56    0.08</time>
   <time name="diis">    1.43    0.46</time>
   <time name="orth">    0.04    0.02</time>
   <time name="total">    6.41    1.21</time>
   <energy>
    <i name="e_fr_energy">     -6.04938255 </i>
    <i name="e_wo_entrp">     -6.04938255 </i>
    <i name="e_0_energy">     -6.04938255 </i>
   </energy>
  </scstep>
  <scstep>
   <time name="diag">    0.55    0.08</time>
   <time name="diis">    1.34    0.42</time>
   <time name="orth">    0.04    0.02</time>
   <time name="total">    6.36    1.17</time>
   <energy>
    <i name="e_fr_energy">     -6.04945771 </i>
    <i name="e_wo_entrp">     -6.04945771 </i>
    <i name="e_0_energy">     -6.04945771 </i>
   </energy>
  </scstep>
  <scstep>
   <time name="diag">    0.55    0.08</time>
   <time name="diis">    1.27    0.38</time>
   <time name="orth">    0.04    0.02</time>
   <time name="total">    6.32    1.14</time>
   <energy>
    <i name="e_fr_energy">     -6.04953805 </i>
    <i name="e_wo_entrp">     -6.04953805 </i>
    <i name="e_0_energy">     -6.04953805 </i>
   </energy>
  </scstep>
  <scstep>
   <time name="diag">    0.55    0.08</time>
   <time name="diis">    1.17    0.37</time>
   <time name="orth">    0.04    0.02</time>
   <time name="total">    6.34    1.15</time>
   <energy>
    <i name="e_fr_energy">     -6.04953479 </i>
    <i name="e_wo_entrp">     -6.04953479 </i>
    <i name="e_0_energy">     -6.04953479 </i>
   </energy>
  </scstep>
  <scstep>
   <time name="diag">    0.56    0.08</time>
   <time name="diis">    1.09    0.39</time>
   <time name="orth">    0.04    0.02</time>
   <time name="total">    6.45    1.19</time>
   <energy>
    <i name="e_fr_energy">     -6.04954582 </i>
    <i name="e_wo_entrp">     -6.04954582 </i>
    <i name="e_0_energy">     -6.04954582 </i>
   </energy>
  </scstep>
  <scstep>
   <time name="diag">    0.55    0.08</time>
[...]
       <r>    0.0564    0.0000 </r>
       <r>    0.2514    0.0000 </r>
       <r>    0.7223    0.0000 </r>
      </set>
      <set comment="kpoint 29">
       <r>  -34.9918    1.0000 </r>
       <r>  -22.4755    1.0000 </r>
       <r>  -18.5710    1.0000 </r>
       <r>  -18.5708    1.0000 </r>
       <r>  -18.3037    1.0000 </r>
       <r>   -4.2857    1.0000 </r>
       <r>   -4.0890    1.0000 </r>
       <r>   -4.0876    1.0000 </r>
       <r>   -1.2885    0.0000 </r>
       <r>   -0.1157    0.0000 </r>
       <r>    0.2736    0.0000 </r>
       <r>    0.7526    0.0000 </r>
      </set>
      <set comment="kpoint 30">
       <r>  -34.9918    1.0000 </r>
       <r>  -22.4756    1.0000 </r>
       <r>  -18.5710    1.0000 </r>
       <r>  -18.5708    1.0000 </r>
       <r>  -18.3037    1.0000 </r>
       <r>   -4.2857    1.0000 </r>
       <r>   -4.0882    1.0000 </r>
       <r>   -4.0871    1.0000 </r>
       <r>   -1.4471    0.0000 </r>
       <r>    0.0144    0.0000 </r>
       <r>    0.2204    0.0000 </r>
       <r>    0.9062    0.0000 </r>
      </set>
      <set comment="kpoint 31">
       <r>  -34.9918    1.0000 </r>
       <r>  -22.4755    1.0000 </r>
       <r>  -18.5710    1.0000 </r>
       <r>  -18.5708    1.0000 </r>
       <r>  -18.3037    1.0000 </r>
       <r>   -4.2858    1.0000 </r>
       <r>   -4.0882    1.0000 </r>
       <r>   -4.0878    1.0000 </r>
       <r>   -1.3617    0.0000 </r>
       <r>    0.1167    0.0000 </r>
       <r>    0.2980    0.0000 </r>
       <r>    0.3408    0.0000 </r>
      </set>
      <set comment="kpoint 32">
       <r>  -34.9918    1.0000 </r>
       <r>  -22.4755    1.0000 </r>
       <r>  -18.5710    1.0000 </r>
       <r>  -18.5708    1.0000 </r>
       <r>  -18.3037    1.0000 </r>
       <r>   -4.2857    1.0000 </r>
       <r>   -4.0882    1.0000 </r>
       <r>   -4.0879    1.0000 </r>
       <r>   -1.3607    0.0000 </r>
       <r>    0.1266    0.0000 </r>
       <r>    0.2298    0.0000 </r>
       <r>    0.5795    0.0000 </r>
      </set>
      <set comment="kpoint 33">
       <r>  -34.9918    1.0000 </r>
       <r>  -22.4756    1.0000 </r>
       <r>  -18.5710    1.0000 </r>
       <r>  -18.5708    1.0000 </r>
       <r>  -18.3037    1.0000 </r>
       <r>   -4.2858    1.0000 </r>
       <r>   -4.0890    1.0000 </r>
       <r>   -4.0878    1.0000 </r>
       <r>   -1.2502    0.0000 </r>
       <r>   -0.0566    0.0000 </r>
       <r>    0.3172    0.0000 </r>
       <r>    0.4922    0.0000 </r>
      </set>
      <set comment="kpoint 34">
       <r>  -34.9918    1.0000 </r>
       <r>  -22.4755    1.0000 </r>
       <r>  -18.5710    1.0000 </r>
       <r>  -18.5708    1.0000 </r>
       <r>  -18.3037    1.0000 </r>
       <r>   -4.2858    1.0000 </r>
       <r>   -4.0884    1.0000 </r>
       <r>   -4.0871    1.0000 </r>
       <r>   -1.3968    0.0000 </r>
       <r>   -0.0443    0.0000 </r>
       <r>    0.1586    0.0000 </r>
       <r>    0.7676    0.0000 </r>
      </set>
      <set comment="kpoint 35">
       <r>  -34.9918    1.0000 </r>
       <r>  -22.4756    1.0000 </r>
       <r>  -18.5710    1.0000 </r>
       <r>  -18.5708    1.0000 </r>
       <r>  -18.3037    1.0000 </r>
       <r>   -4.2859    1.0000 </r>
       <r>   -4.0882    1.0000 </r>
       <r>   -4.0880    1.0000 </r>
       <r>   -1.3134    0.0000 </r>
       <r>    0.0589    0.0000 </r>
       <r>    0.2472    0.0000 </r>
       <r>    0.4700    0.0000 </r>
      </set>
      <set comment="kpoint 36">
       <r>  -34.9918    1.0000 </r>
       <r>  -22.4756    1.0000 </r>
       <r>  -18.5710    1.0000 </r>
       <r>  -18.5708    1.0000 </r>
       <r>  -18.3037    1.0000 </r>
       <r>   -4.2859    1.0000 </r>
       <r>   -4.0890    1.0000 </r>
       <r>   -4.0880    1.0000 </r>
       <r>   -1.2068    0.0000 </r>
       <r>    0.0194    0.0000 </r>
       <r>    0.2338    0.0000 </r>
       <r>    0.4517    0.0000 </r>
      </set>
     </set>
    </set>
   </array>
  </eigenvalues>
  <separator name="orbital magnetization" >
   <v name="MAGDIPOLOUT">      0.00000000      0.00000000      0.00000000</v>
  </separator>
  <dos>
   <i name="efermi">     -3.82643703 </i>
   <total>
    <array>
     <dimension dim="1">gridpoints</dimension>
     <dimension dim="2">spin</dimension>
     <field>energy</field>
     <field>total</field>
     <field>integrated</field>
     <set>
      <set comment="spin 1">
       <r>   -36.7879     0.0000     0.0000 </r>
       <r>   -36.6562     0.0000     0.0000 </r>
       <r>   -36.5245     0.0000     0.0000 </r>
       <r>   -36.3927     0.0000     0.0000 </r>
       <r>   -36.2610     0.0000     0.0000 </r>
       <r>   -36.1293     0.0000     0.0000 </r>
       <r>   -35.9976     0.0000     0.0000 </r>
       <r>   -35.8659     0.0000     0.0000 </r>
       <r>   -35.7342     0.0000     0.0000 </r>
       <r>   -35.6025     0.0000     0.0000 </r>
       <r>   -35.4707     0.0000     0.0000 </r>
       <r>   -35.3390     0.0000     0.0000 </r>
       <r>   -35.2073     0.0000     0.0000 </r>
       <r>   -35.0756     0.1348     0.0178 </r>
       <r>   -34.9439    13.7171     1.8245 </r>
       <r>   -34.8122     1.3326     2.0000 </r>
       <r>   -34.6805     0.0000     2.0000 </r>
       <r>   -34.5487     0.0000     2.0000 </r>
       <r>   -34.4170     0.0000     2.0000 </r>
       <r>   -34.2853     0.0000     2.0000 </r>
       <r>   -34.1536     0.0000     2.0000 </r>
       <r>   -34.0219     0.0000     2.0000 </r>
       <r>   -33.8902     0.0000     2.0000 </r>
       <r>   -33.7585     0.0000     2.0000 </r>
       <r>   -33.6267     0.0000     2.0000 </r>
       <r>   -33.4950     0.0000     2.0000 </r>
       <r>   -33.3633     0.0000     2.0000 </r>
       <r>   -33.2316     0.0000     2.0000 </r>
       <r>   -33.0999     0.0000     2.0000 </r>
       <r>   -32.9682     0.0000     2.0000 </r>
       <r>   -32.8365     0.0000     2.0000 </r>
       <r>   -32.7047     0.0000     2.0000 </r>
       <r>   -32.5730     0.0000     2.0000 </r>
       <r>   -32.4413     0.0000     2.0000 </r>
       <r>   -32.3096     0.0000     2.0000 </r>
       <r>   -32.1779     0.0000     2.0000 </r>
       <r>   -32.0462     0.0000     2.0000 </r>
       <r>   -31.9145     0.0000     2.0000 </r>
       <r>   -31.7827     0.0000     2.0000 </r>
       <r>   -31.6510     0.0000     2.0000 </r>
       <r>   -31.5193     0.0000     2.0000 </r>
       <r>   -31.3876     0.0000     2.0000 </r>
       <r>   -31.2559     0.0000     2.0000 </r>
       <r>   -31.1242     0.0000     2.0000 </r>
       <r>   -30.9925     0.0000     2.0000 </r>
       <r>   -30.8607     0.0000     2.0000 </r>
       <r>   -30.7290     0.0000     2.0000 </r>
       <r>   -30.5973     0.0000     2.0000 </r>
       <r>   -30.4656     0.0000     2.0000 </r>
       <r>   -30.3339     0.0000     2.0000 </r>
       <r>   -30.2022     0.0000     2.0000 </r>
       <r>   -30.0705     0.0000     2.0000 </r>
       <r>   -29.9387     0.0000     2.0000 </r>
       <r>   -29.8070     0.0000     2.0000 </r>
       <r>   -29.6753     0.0000     2.0000 </r>
       <r>   -29.5436     0.0000     2.0000 </r>
       <r>   -29.4119     0.0000     2.0000 </r>
       <r>   -29.2802     0.0000     2.0000 </r>
       <r>   -29.1485     0.0000     2.0000 </r>
       <r>   -29.0168     0.0000     2.0000 </r>
       <r>   -28.8850     0.0000     2.0000 </r>
       <r>   -28.7533     0.0000     2.0000 </r>
       <r>   -28.6216     0.0000     2.0000 </r>
       <r>   -28.4899     0.0000     2.0000 </r>
       <r>   -28.3582     0.0000     2.0000 </r>
       <r>   -28.2265     0.0000     2.0000 </r>
       <r>   -28.0948     0.0000     2.0000 </r>
       <r>   -27.9630     0.0000     2.0000 </r>
       <r>   -27.8313     0.0000     2.0000 </r>
       <r>   -27.6996     0.0000     2.0000 </r>
       <r>   -27.5679     0.0000     2.0000 </r>
       <r>   -27.4362     0.0000     2.0000 </r>
       <r>   -27.3045     0.0000     2.0000 </r>
       <r>   -27.1728     0.0000     2.0000 </r>
       <r>   -27.0410     0.0000     2.0000 </r>
       <r>   -26.9093     0.0000     2.0000 </r>
       <r>   -26.7776     0.0000     2.0000 </r>
       <r>   -26.6459     0.0000     2.0000 </r>
       <r>   -26.5142     0.0000     2.0000 </r>
       <r>   -26.3825     0.0000     2.0000 </r>
       <r>   -26.2508     0.0000     2.0000 </r>
       <r>   -26.1190     0.0000     2.0000 </r>
       <r>   -25.9873     0.0000     2.0000 </r>
       <r>   -25.8556     0.0000     2.0000 </r>
       <r>   -25.7239     0.0000     2.0000 </r>
       <r>   -25.5922     0.0000     2.0000 </r>
       <r>   -25.4605     0.0000     2.0000 </r>
       <r>   -25.3288     0.0000     2.0000 </r>
       <r>   -25.1970     0.0000     2.0000 </r>
       <r>   -25.0653     0.0000     2.0000 </r>
       <r>   -24.9336     0.0000     2.0000 </r>
       <r>   -24.8019     0.0000     2.0000 </r>
       <r>   -24.6702     0.0000     2.0000 </r>
       <r>   -24.5385     0.0000     2.0000 </r>
       <r>   -24.4068     0.0000     2.0000 </r>
       <r>   -24.2750     0.0000     2.0000 </r>
       <r>   -24.1433     0.0000     2.0000 </r>
       <r>   -24.0116     0.0000     2.0000 </r>
       <r>   -23.8799     0.0000     2.0000 </r>
       <r>   -23.7482     0.0000     2.0000 </r>
       <r>   -23.6165     0.0000     2.0000 </r>
       <r>   -23.4848     0.0000     2.0000 </r>
       <r>   -23.3530     0.0000     2.0000 </r>
       <r>   -23.2213     0.0000     2.0000 </r>
       <r>   -23.0896     0.0000     2.0000 </r>
       <r>   -22.9579     0.0000     2.0000 </r>
       <r>   -22.8262     0.0000     2.0000 </r>
       <r>   -22.6945     0.0000     2.0000 </r>
       <r>   -22.5628     0.1038     2.0137 </r>
       <r>   -22.4310    13.5028     3.7922 </r>
       <r>   -22.2993     1.5778     4.0000 </r>
       <r>   -22.1676     0.0000     4.0000 </r>
       <r>   -22.0359     0.0000     4.0000 </r>
       <r>   -21.9042     0.0000     4.0000 </r>
       <r>   -21.7725     0.0000     4.0000 </r>
       <r>   -21.6408     0.0000     4.0000 </r>
       <r>   -21.5090     0.0000     4.0000 </r>
       <r>   -21.3773     0.0000     4.0000 </r>
       <r>   -21.2456     0.0000     4.0000 </r>
       <r>   -21.1139     0.0000     4.0000 </r>
       <r>   -20.9822     0.0000     4.0000 </r>
       <r>   -20.8505     0.0000     4.0000 </r>
       <r>   -20.7188     0.0000     4.0000 </r>
       <r>   -20.5871     0.0000     4.0000 </r>
       <r>   -20.4553     0.0000     4.0000 </r>
       <r>   -20.3236     0.0000     4.0000 </r>
       <r>   -20.1919     0.0000     4.0000 </r>
       <r>   -20.0602     0.0000     4.0000 </r>
       <r>   -19.9285     0.0000     4.0000 </r>
       <r>   -19.7968     0.0000     4.0000 </r>
       <r>   -19.6651     0.0000     4.0000 </r>
       <r>   -19.5333     0.0000     4.0000 </r>
       <r>   -19.4016     0.0000     4.0000 </r>
       <r>   -19.2699     0.0000     4.0000 </r>
       <r>   -19.1382     0.0000     4.0000 </r>
       <r>   -19.0065     0.0000     4.0000 </r>
       <r>   -18.8748     0.0000     4.0000 </r>
       <r>   -18.7431     0.0000     4.0000 </r>
       <r>   -18.6113     3.8344     4.5050 </r>
       <r>   -18.4796    26.3849     7.9803 </r>
       <r>   -18.3479     1.7552     8.2115 </r>
       <r>   -18.2162    13.4779     9.9867 </r>
       <r>   -18.0845     0.1009    10.0000 </r>
       <r>   -17.9528     0.0000    10.0000 </r>
       <r>   -17.8211     0.0000    10.0000 </r>
       <r>   -17.6893     0.0000    10.0000 </r>
       <r>   -17.5576     0.0000    10.0000 </r>
       <r>   -17.4259     0.0000    10.0000 </r>
       <r>   -17.2942     0.0000    10.0000 </r>
       <r>   -17.1625     0.0000    10.0000 </r>
       <r>   -17.0308     0.0000    10.0000 </r>
       <r>   -16.8991     0.0000    10.0000 </r>
       <r>   -16.7673     0.0000    10.0000 </r>
       <r>   -16.6356     0.0000    10.0000 </r>
       <r>   -16.5039     0.0000    10.0000 </r>
       <r>   -16.3722     0.0000    10.0000 </r>
       <r>   -16.2405     0.0000    10.0000 </r>
       <r>   -16.1088     0.0000    10.0000 </r>
       <r>   -15.9771     0.0000    10.0000 </r>
       <r>   -15.8453     0.0000    10.0000 </r>
       <r>   -15.7136     0.0000    10.0000 </r>
       <r>   -15.5819     0.0000    10.0000 </r>
       <r>   -15.4502     0.0000    10.0000 </r>
       <r>   -15.3185     0.0000    10.0000 </r>
       <r>   -15.1868     0.0000    10.0000 </r>
       <r>   -15.0551     0.0000    10.0000 </r>
       <r>   -14.9233     0.0000    10.0000 </r>
       <r>   -14.7916     0.0000    10.0000 </r>
       <r>   -14.6599     0.0000    10.0000 </r>
       <r>   -14.5282     0.0000    10.0000 </r>
       <r>   -14.3965     0.0000    10.0000 </r>
       <r>   -14.2648     0.0000    10.0000 </r>
       <r>   -14.1331     0.0000    10.0000 </r>
       <r>   -14.0013     0.0000    10.0000 </r>
       <r>   -13.8696     0.0000    10.0000 </r>
       <r>   -13.7379     0.0000    10.0000 </r>
       <r>   -13.6062     0.0000    10.0000 </r>
       <r>   -13.4745     0.0000    10.0000 </r>
       <r>   -13.3428     0.0000    10.0000 </r>
       <r>   -13.2111     0.0000    10.0000 </r>
       <r>   -13.0793     0.0000    10.0000 </r>
       <r>   -12.9476     0.0000    10.0000 </r>
       <r>   -12.8159     0.0000    10.0000 </r>
       <r>   -12.6842     0.0000    10.0000 </r>
       <r>   -12.5525     0.0000    10.0000 </r>
       <r>   -12.4208     0.0000    10.0000 </r>
       <r>   -12.2891     0.0000    10.0000 </r>
       <r>   -12.1574     0.0000    10.0000 </r>
       <r>   -12.0256     0.0000    10.0000 </r>
       <r>   -11.8939     0.0000    10.0000 </r>
       <r>   -11.7622     0.0000    10.0000 </r>
       <r>   -11.6305     0.0000    10.0000 </r>
       <r>   -11.4988     0.0000    10.0000 </r>
       <r>   -11.3671     0.0000    10.0000 </r>
       <r>   -11.2354     0.0000    10.0000 </r>
       <r>   -11.1036     0.0000    10.0000 </r>
       <r>   -10.9719     0.0000    10.0000 </r>
       <r>   -10.8402     0.0000    10.0000 </r>
       <r>   -10.7085     0.0000    10.0000 </r>
       <r>   -10.5768     0.0000    10.0000 </r>
       <r>   -10.4451     0.0000    10.0000 </r>
       <r>   -10.3134     0.0000    10.0000 </r>
       <r>   -10.1816     0.0000    10.0000 </r>
       <r>   -10.0499     0.0000    10.0000 </r>
       <r>    -9.9182     0.0000    10.0000 </r>
       <r>    -9.7865     0.0000    10.0000 </r>
       <r>    -9.6548     0.0000    10.0000 </r>
       <r>    -9.5231     0.0000    10.0000 </r>
       <r>    -9.3914     0.0000    10.0000 </r>
       <r>    -9.2596     0.0000    10.0000 </r>
       <r>    -9.1279     0.0000    10.0000 </r>
       <r>    -8.9962     0.0000    10.0000 </r>
       <r>    -8.8645     0.0000    10.0000 </r>
       <r>    -8.7328     0.0000    10.0000 </r>
       <r>    -8.6011     0.0000    10.0000 </r>
       <r>    -8.4694     0.0000    10.0000 </r>
       <r>    -8.3376     0.0000    10.0000 </r>
       <r>    -8.2059     0.0000    10.0000 </r>
       <r>    -8.0742     0.0000    10.0000 </r>
       <r>    -7.9425     0.0000    10.0000 </r>
       <r>    -7.8108     0.0000    10.0000 </r>
       <r>    -7.6791     0.0000    10.0000 </r>
       <r>    -7.5474     0.0000    10.0000 </r>
       <r>    -7.4156     0.0000    10.0000 </r>
       <r>    -7.2839     0.0000    10.0000 </r>
       <r>    -7.1522     0.0000    10.0000 </r>
       <r>    -7.0205     0.0000    10.0000 </r>
       <r>    -6.8888     0.0000    10.0000 </r>
       <r>    -6.7571     0.0000    10.0000 </r>
       <r>    -6.6254     0.0000    10.0000 </r>
       <r>    -6.4936     0.0000    10.0000 </r>
       <r>    -6.3619     0.0000    10.0000 </r>
       <r>    -6.2302     0.0000    10.0000 </r>
       <r>    -6.0985     0.0000    10.0000 </r>
       <r>    -5.9668     0.0000    10.0000 </r>
       <r>    -5.8351     0.0000    10.0000 </r>
       <r>    -5.7034     0.0000    10.0000 </r>
       <r>    -5.5716     0.0000    10.0000 </r>
       <r>    -5.4399     0.0000    10.0000 </r>
       <r>    -5.3082     0.0000    10.0000 </r>
       <r>    -5.1765     0.0000    10.0000 </r>
       <r>    -5.0448     0.0000    10.0000 </r>
       <r>    -4.9131     0.0000    10.0000 </r>
       <r>    -4.7814     0.0000    10.0000 </r>
       <r>    -4.6496     0.0000    10.0000 </r>
       <r>    -4.5179     0.0000    10.0000 </r>
       <r>    -4.3862     0.0339    10.0045 </r>
       <r>    -4.2545    12.2824    11.6222 </r>
       <r>    -4.1228     7.8037    12.6501 </r>
       <r>    -3.9911    25.3402    15.9877 </r>
       <r>    -3.8594     0.0930    16.0000 </r>
       <r>    -3.7277     0.0000    16.0000 </r>
       <r>    -3.5959     0.0000    16.0000 </r>
       <r>    -3.4642     0.0000    16.0000 </r>
       <r>    -3.3325     0.0000    16.0000 </r>
       <r>    -3.2008     0.0000    16.0000 </r>
       <r>    -3.0691     0.0000    16.0000 </r>
       <r>    -2.9374     0.0000    16.0000 </r>
       <r>    -2.8057     0.0000    16.0000 </r>
       <r>    -2.6739     0.0000    16.0000 </r>
       <r>    -2.5422     0.0000    16.0000 </r>
       <r>    -2.4105     0.0000    16.0000 </r>
       <r>    -2.2788     0.0000    16.0000 </r>
       <r>    -2.1471     0.0000    16.0000 </r>
       <r>    -2.0154     0.0000    16.0000 </r>
       <r>    -1.8837     0.0000    16.0000 </r>
       <r>    -1.7519     0.0000    16.0000 </r>
       <r>    -1.6202     0.0033    16.0004 </r>
       <r>    -1.4885     1.4465    16.1910 </r>
       <r>    -1.3568     7.5601    17.1867 </r>
       <r>    -1.2251     5.4289    17.9018 </r>
       <r>    -1.0934     0.7454    18.0000 </r>
       <r>    -0.9617     0.0002    18.0000 </r>
       <r>    -0.8299     0.0000    18.0000 </r>
       <r>    -0.6982     0.0000    18.0000 </r>
       <r>    -0.5665     0.0000    18.0000 </r>
       <r>    -0.4348     0.0000    18.0000 </r>
       <r>    -0.3031     0.0003    18.0000 </r>
       <r>    -0.1714     0.4991    18.0658 </r>
       <r>    -0.0397     3.6310    18.5440 </r>
       <r>     0.0921     4.4569    19.1311 </r>
       <r>     0.2238     8.2672    20.2200 </r>
       <r>     0.3555     9.3453    21.4509 </r>
       <r>     0.4872     4.9966    22.1090 </r>
       <r>     0.6189     5.0262    22.7710 </r>
       <r>     0.7506     4.5323    23.3680 </r>
       <r>     0.8823     2.8632    23.7451 </r>
       <r>     1.0141     1.9316    23.9995 </r>
       <r>     1.1458     0.0036    24.0000 </r>
       <r>     1.2775     0.0000    24.0000 </r>
       <r>     1.4092     0.0000    24.0000 </r>
       <r>     1.5409     0.0000    24.0000 </r>
       <r>     1.6726     0.0000    24.0000 </r>
       <r>     1.8043     0.0000    24.0000 </r>
       <r>     1.9361     0.0000    24.0000 </r>
       <r>     2.0678     0.0000    24.0000 </r>
       <r>     2.1995     0.0000    24.0000 </r>
       <r>     2.3312     0.0000    24.0000 </r>
       <r>     2.4629     0.0000    24.0000 </r>
       <r>     2.5946     0.0000    24.0000 </r>
       <r>     2.7263     0.0000    24.0000 </r>
      </set>
     </set>
    </array>
   </total>
  </dos>
 </calculation>
 <structure name="finalpos" >
  <crystal>
   <varray name="basis" >
    <v>       8.00000000       0.00000000       0.00000000 </v>
    <v>       0.00000000       9.00000000       0.00000000 </v>
    <v>       0.00000000       0.00000000      10.00000000 </v>
   </varray>
   <i name="volume">    720.00000000 </i>
   <varray name="rec_basis" >
    <v>       0.12500000       0.00000000       0.00000000 </v>
    <v>       0.00000000       0.11111111       0.00000000 </v>
    <v>       0.00000000       0.00000000       0.10000000 </v>
   </varray>
  </crystal>
  <varray name="positions" >
   <v>       0.63170740       0.63167517       0.63165348 </v>
   <v>       0.46829260       0.46832483       0.46834652 </v>
  </varray>
 </structure>
</modeling>
