unknown system                          
           1
     8.000000    0.000000    0.000000
     0.000000    9.000000    0.000000
     0.000000    0.000000   10.000000
   K    F 
     1     1
Direct configuration=     1
   0.60000000  0.60000000  0.60000000
   0.50000000  0.50000000  0.50000000
Direct configuration=     2
   0.66869078  0.66862098  0.66857398
   0.43130922  0.43137902  0.43142602
Direct configuration=     3
   0.66606752  0.66600038  0.66595518
   0.43393248  0.43399962  0.43404482
Direct configuration=     4
   0.66341479  0.66335035  0.66330696
   0.43658521  0.43664965  0.43669304
Direct configuration=     5
   0.63170740  0.63167517  0.63165348
   0.46829260  0.46832483  0.46834652
