  30  30   0   0
  0.8742001E+01  0.4805027E-09  0.4805027E-09  0.1311625E-08  0.5000000E-15
  1.000000000000000E-004
  CAR 
 ni3al                                   
     19.29306140    -14.75912122  301      6.24681893      1.00000000
    -14.759  0.0000E+00  0.0000E+00
    -14.646  0.0000E+00  0.0000E+00
    -14.532  0.0000E+00  0.0000E+00
    -14.419  0.0000E+00  0.0000E+00
    -14.305  0.0000E+00  0.0000E+00
    -14.192  0.0000E+00  0.0000E+00
    -14.078  0.0000E+00  0.0000E+00
    -13.965  0.0000E+00  0.0000E+00
    -13.851  0.0000E+00  0.0000E+00
    -13.738  0.5832E-17  0.6620E-18
    -13.624  0.4108E-12  0.4662E-13
    -13.511  0.2633E-08  0.2989E-09
    -13.397  0.1671E-05  0.1900E-06
    -13.284  0.1237E-03  0.1423E-04
    -13.170  0.1457E-02  0.1796E-03
    -13.057  0.4602E-02  0.7020E-03
    -12.943  0.7400E-02  0.1542E-02
    -12.829  0.9593E-02  0.2631E-02
    -12.716  0.1157E-01  0.3944E-02
    -12.602  0.1357E-01  0.5484E-02
    -12.489  0.1549E-01  0.7242E-02
    -12.375  0.1788E-01  0.9272E-02
    -12.262  0.2021E-01  0.1157E-01
    -12.148  0.2403E-01  0.1429E-01
    -12.035  0.2823E-01  0.1750E-01
    -11.921  0.2940E-01  0.2084E-01
    -11.808  0.2870E-01  0.2409E-01
    -11.694  0.2669E-01  0.2712E-01
    -11.581  0.2582E-01  0.3005E-01
    -11.467  0.2516E-01  0.3291E-01
    -11.354  0.3091E-01  0.3642E-01
    -11.240  0.3984E-01  0.4094E-01
    -11.127  0.5092E-01  0.4672E-01
    -11.013  0.6921E-01  0.5457E-01
    -10.900  0.7793E-01  0.6342E-01
    -10.786  0.8430E-01  0.7299E-01
    -10.673  0.9834E-01  0.8415E-01
    -10.559  0.9960E-01  0.9546E-01
    -10.446  0.1052E+00  0.1074E+00
    -10.332  0.8845E-01  0.1174E+00
    -10.219  0.2175E-01  0.1199E+00
    -10.105  0.8228E-03  0.1200E+00
     -9.992  0.3490E-05  0.1200E+00
     -9.878  0.1402E-08  0.1200E+00
     -9.765  0.4896E-13  0.1200E+00
     -9.651  0.0000E+00  0.1200E+00
     -9.538  0.0000E+00  0.1200E+00
     -9.424  0.0000E+00  0.1200E+00
     -9.311  0.0000E+00  0.1200E+00
     -9.197  0.0000E+00  0.1200E+00
     -9.084  0.0000E+00  0.1200E+00
     -8.970  0.0000E+00  0.1200E+00
     -8.857  0.0000E+00  0.1200E+00
     -8.743  0.0000E+00  0.1200E+00
     -8.630  0.0000E+00  0.1200E+00
     -8.516  0.0000E+00  0.1200E+00
     -8.403  0.0000E+00  0.1200E+00
     -8.289  0.0000E+00  0.1200E+00
     -8.176  0.0000E+00  0.1200E+00
     -8.062  0.0000E+00  0.1200E+00
     -7.949  0.0000E+00  0.1200E+00
     -7.835  0.0000E+00  0.1200E+00
     -7.722  0.0000E+00  0.1200E+00
     -7.608  0.0000E+00  0.1200E+00
     -7.495  0.0000E+00  0.1200E+00
     -7.381  0.0000E+00  0.1200E+00
     -7.268  0.0000E+00  0.1200E+00
     -7.154  0.0000E+00  0.1200E+00
     -7.041  0.0000E+00  0.1200E+00
     -6.927  0.0000E+00  0.1200E+00
     -6.814  0.0000E+00  0.1200E+00
     -6.700  0.0000E+00  0.1200E+00
     -6.587  0.0000E+00  0.1200E+00
     -6.473  0.0000E+00  0.1200E+00
     -6.360  0.0000E+00  0.1200E+00
     -6.246  0.0000E+00  0.1200E+00
     -6.133  0.0000E+00  0.1200E+00
     -6.019  0.0000E+00  0.1200E+00
     -5.906  0.0000E+00  0.1200E+00
     -5.792  0.0000E+00  0.1200E+00
     -5.679  0.0000E+00  0.1200E+00
     -5.565  0.0000E+00  0.1200E+00
     -5.452  0.0000E+00  0.1200E+00
     -5.338  0.0000E+00  0.1200E+00
     -5.225  0.0000E+00  0.1200E+00
     -5.111  0.0000E+00  0.1200E+00
     -4.997  0.0000E+00  0.1200E+00
     -4.884  0.0000E+00  0.1200E+00
     -4.770  0.0000E+00  0.1200E+00
     -4.657  0.0000E+00  0.1200E+00
     -4.543  0.0000E+00  0.1200E+00
     -4.430  0.0000E+00  0.1200E+00
     -4.316  0.0000E+00  0.1200E+00
     -4.203  0.0000E+00  0.1200E+00
     -4.089  0.0000E+00  0.1200E+00
     -3.976  0.0000E+00  0.1200E+00
     -3.862  0.0000E+00  0.1200E+00
     -3.749  0.0000E+00  0.1200E+00
     -3.635  0.0000E+00  0.1200E+00
     -3.522  0.0000E+00  0.1200E+00
     -3.408  0.0000E+00  0.1200E+00
     -3.295  0.0000E+00  0.1200E+00
     -3.181  0.0000E+00  0.1200E+00
     -3.068  0.0000E+00  0.1200E+00
     -2.954  0.0000E+00  0.1200E+00
     -2.841  0.0000E+00  0.1200E+00
     -2.727  0.0000E+00  0.1200E+00
     -2.614  0.0000E+00  0.1200E+00
     -2.500  0.0000E+00  0.1200E+00
     -2.387  0.0000E+00  0.1200E+00
     -2.273  0.0000E+00  0.1200E+00
     -2.160  0.0000E+00  0.1200E+00
     -2.046  0.0000E+00  0.1200E+00
     -1.933  0.0000E+00  0.1200E+00
     -1.819  0.0000E+00  0.1200E+00
     -1.706  0.0000E+00  0.1200E+00
     -1.592  0.0000E+00  0.1200E+00
     -1.479  0.2659E-17  0.1200E+00
     -1.365  0.2051E-12  0.1200E+00
     -1.252  0.1377E-08  0.1200E+00
     -1.138  0.8648E-06  0.1200E+00
     -1.025  0.6169E-04  0.1200E+00
     -0.911  0.7675E-03  0.1201E+00
     -0.798  0.2947E-02  0.1204E+00
     -0.684  0.5933E-02  0.1211E+00
     -0.571  0.1177E-01  0.1224E+00
     -0.457  0.2016E-01  0.1247E+00
     -0.344  0.2566E-01  0.1276E+00
     -0.230  0.4086E-01  0.1323E+00
     -0.117  0.5727E-01  0.1388E+00
     -0.003  0.5581E-01  0.1451E+00
      0.110  0.5190E-01  0.1510E+00
      0.224  0.5296E-01  0.1570E+00
      0.337  0.5209E-01  0.1629E+00
      0.451  0.4245E-01  0.1677E+00
      0.564  0.3212E-01  0.1714E+00
      0.678  0.3087E-01  0.1749E+00
      0.791  0.3266E-01  0.1786E+00
      0.905  0.4555E-01  0.1838E+00
      1.018  0.4978E-01  0.1894E+00
      1.132  0.4214E-01  0.1942E+00
      1.245  0.3716E-01  0.1984E+00
      1.359  0.3236E-01  0.2021E+00
      1.472  0.2913E-01  0.2054E+00
      1.586  0.3437E-01  0.2093E+00
      1.699  0.4541E-01  0.2145E+00
      1.813  0.5516E-01  0.2207E+00
      1.926  0.6223E-01  0.2278E+00
      2.040  0.5675E-01  0.2342E+00
      2.153  0.4438E-01  0.2393E+00
      2.267  0.3729E-01  0.2435E+00
      2.380  0.3403E-01  0.2474E+00
      2.494  0.3566E-01  0.2514E+00
      2.607  0.3813E-01  0.2557E+00
      2.721  0.4111E-01  0.2604E+00
      2.835  0.3873E-01  0.2648E+00
      2.948  0.3765E-01  0.2691E+00
      3.062  0.3749E-01  0.2733E+00
      3.175  0.3960E-01  0.2778E+00
      3.289  0.4899E-01  0.2834E+00
      3.402  0.5294E-01  0.2894E+00
      3.516  0.6141E-01  0.2964E+00
      3.629  0.8392E-01  0.3059E+00
      3.743  0.7229E-01  0.3141E+00
      3.856  0.6386E-01  0.3213E+00
      3.970  0.6393E-01  0.3286E+00
      4.083  0.6713E-01  0.3362E+00
      4.197  0.7630E-01  0.3449E+00
      4.310  0.7968E-01  0.3539E+00
      4.424  0.8932E-01  0.3641E+00
      4.537  0.1083E+00  0.3763E+00
      4.651  0.1074E+00  0.3885E+00
      4.764  0.7782E-01  0.3974E+00
      4.878  0.7309E-01  0.4057E+00
      4.991  0.7854E-01  0.4146E+00
      5.105  0.8495E-01  0.4242E+00
      5.218  0.9239E-01  0.4347E+00
      5.332  0.9110E-01  0.4451E+00
      5.445  0.8966E-01  0.4552E+00
      5.559  0.9679E-01  0.4662E+00
      5.672  0.7378E-01  0.4746E+00
      5.786  0.3676E-01  0.4788E+00
      5.899  0.1021E-01  0.4799E+00
      6.013  0.7011E-03  0.4800E+00
      6.126  0.6854E-05  0.4800E+00
      6.240  0.7188E-08  0.4800E+00
      6.353  0.7037E-12  0.4800E+00
      6.467  0.5970E-17  0.4800E+00
      6.580  0.0000E+00  0.4800E+00
      6.694  0.0000E+00  0.4800E+00
      6.807  0.0000E+00  0.4800E+00
      6.921  0.0000E+00  0.4800E+00
      7.034  0.0000E+00  0.4800E+00
      7.148  0.0000E+00  0.4800E+00
      7.261  0.0000E+00  0.4800E+00
      7.375  0.0000E+00  0.4800E+00
      7.488  0.0000E+00  0.4800E+00
      7.602  0.0000E+00  0.4800E+00
      7.715  0.0000E+00  0.4800E+00
      7.829  0.0000E+00  0.4800E+00
      7.942  0.0000E+00  0.4800E+00
      8.056  0.0000E+00  0.4800E+00
      8.169  0.0000E+00  0.4800E+00
      8.283  0.0000E+00  0.4800E+00
      8.396  0.0000E+00  0.4800E+00
      8.510  0.0000E+00  0.4800E+00
      8.623  0.0000E+00  0.4800E+00
      8.737  0.0000E+00  0.4800E+00
      8.850  0.0000E+00  0.4800E+00
      8.964  0.0000E+00  0.4800E+00
      9.077  0.0000E+00  0.4800E+00
      9.191  0.0000E+00  0.4800E+00
      9.304  0.0000E+00  0.4800E+00
      9.418  0.0000E+00  0.4800E+00
      9.531  0.0000E+00  0.4800E+00
      9.645  0.0000E+00  0.4800E+00
      9.758  0.0000E+00  0.4800E+00
      9.872  0.0000E+00  0.4800E+00
      9.985  0.0000E+00  0.4800E+00
     10.099  0.0000E+00  0.4800E+00
     10.212  0.0000E+00  0.4800E+00
     10.326  0.0000E+00  0.4800E+00
     10.439  0.0000E+00  0.4800E+00
     10.553  0.0000E+00  0.4800E+00
     10.667  0.0000E+00  0.4800E+00
     10.780  0.0000E+00  0.4800E+00
     10.894  0.0000E+00  0.4800E+00
     11.007  0.0000E+00  0.4800E+00
     11.121  0.5180E-18  0.4800E+00
     11.234  0.4039E-13  0.4800E+00
     11.348  0.2557E-09  0.4800E+00
     11.461  0.1389E-06  0.4800E+00
     11.575  0.7999E-05  0.4800E+00
     11.688  0.9322E-04  0.4800E+00
     11.802  0.3659E-03  0.4801E+00
     11.915  0.6801E-03  0.4801E+00
     12.029  0.8444E-03  0.4802E+00
     12.142  0.1084E-02  0.4803E+00
     12.256  0.1242E-02  0.4805E+00
     12.369  0.1486E-02  0.4807E+00
     12.483  0.2103E-02  0.4809E+00
     12.596  0.1550E-02  0.4811E+00
     12.710  0.1816E-02  0.4813E+00
     12.823  0.3150E-02  0.4816E+00
     12.937  0.2825E-02  0.4820E+00
     13.050  0.2264E-02  0.4822E+00
     13.164  0.3411E-02  0.4826E+00
     13.277  0.4033E-02  0.4831E+00
     13.391  0.3716E-02  0.4835E+00
     13.504  0.4225E-02  0.4840E+00
     13.618  0.4864E-02  0.4845E+00
     13.731  0.4956E-02  0.4851E+00
     13.845  0.5788E-02  0.4857E+00
     13.958  0.6227E-02  0.4864E+00
     14.072  0.6352E-02  0.4872E+00
     14.185  0.7892E-02  0.4881E+00
     14.299  0.7999E-02  0.4890E+00
     14.412  0.8711E-02  0.4900E+00
     14.526  0.1079E-01  0.4912E+00
     14.639  0.1112E-01  0.4924E+00
     14.753  0.1526E-01  0.4942E+00
     14.866  0.2301E-01  0.4968E+00
     14.980  0.3579E-01  0.5008E+00
     15.093  0.3846E-01  0.5052E+00
     15.207  0.4077E-01  0.5098E+00
     15.320  0.4236E-01  0.5146E+00
     15.434  0.4416E-01  0.5197E+00
     15.547  0.4611E-01  0.5249E+00
     15.661  0.4613E-01  0.5301E+00
     15.774  0.4691E-01  0.5355E+00
     15.888  0.5023E-01  0.5412E+00
     16.001  0.4986E-01  0.5468E+00
     16.115  0.4813E-01  0.5523E+00
     16.228  0.4583E-01  0.5575E+00
     16.342  0.4209E-01  0.5623E+00
     16.455  0.3931E-01  0.5667E+00
     16.569  0.3588E-01  0.5708E+00
     16.682  0.3052E-01  0.5743E+00
     16.796  0.2411E-01  0.5770E+00
     16.909  0.2329E-01  0.5796E+00
     17.023  0.1970E-01  0.5819E+00
     17.136  0.1576E-01  0.5837E+00
     17.250  0.1262E-01  0.5851E+00
     17.363  0.7007E-02  0.5859E+00
     17.477  0.3618E-02  0.5863E+00
     17.590  0.1964E-02  0.5865E+00
     17.704  0.9251E-03  0.5866E+00
     17.817  0.3143E-03  0.5867E+00
     17.931  0.2949E-04  0.5867E+00
     18.044  0.5279E-06  0.5867E+00
     18.158  0.1185E-08  0.5867E+00
     18.271  0.2476E-12  0.5867E+00
     18.385  0.4311E-17  0.5867E+00
     18.499  0.0000E+00  0.5867E+00
     18.612  0.0000E+00  0.5867E+00
     18.726  0.0000E+00  0.5867E+00
     18.839  0.0000E+00  0.5867E+00
     18.953  0.0000E+00  0.5867E+00
     19.066  0.0000E+00  0.5867E+00
     19.180  0.0000E+00  0.5867E+00
     19.293  0.0000E+00  0.5867E+00
