   30   30  300    1
  0.8742001E+01  0.4805027E-09  0.4805027E-09  0.1311625E-08  0.5000000E-15
  1.000000000000000E-004
  CAR 
 ni3al                                   
    144    100     88
 
  0.0000000E+00  0.0000000E+00  0.0000000E+00  0.1111111E-02
      1        -13.211295   1.000000
      2        -12.759947   1.000000
      3        -12.759946   1.000000
      4        -11.676604   1.000000
      5        -11.676604   1.000000
      6        -10.988636   1.000000
      7        -10.724859   1.000000
      8        -10.724859   1.000000
      9        -10.661646   1.000000
     10        -10.661646   1.000000
     11        -10.661645   1.000000
     12        -10.661645   1.000000
     13        -10.508045   1.000000
     14        -10.508045   1.000000
     15        -10.508045   1.000000
     16        -10.508045   1.000000
     17        -10.417924   1.000000
     18        -10.417924   1.000000
     19         -0.945584   1.000000
     20          0.017766   1.000000
     21          0.065600   1.000000
     22          0.065617   1.000000
     23          0.415453   1.000000
     24          0.415453   1.000000
     25          0.490550   1.000000
     26          0.490557   1.000000
     27          0.741328   1.000000
     28          0.741332   1.000000
     29          0.886453   1.000000
     30          0.886453   1.000000
     31          0.886454   1.000000
     32          0.886454   1.000000
     33          1.506761   1.000000
     34          1.642811   1.000000
     35          1.642811   1.000000
     36          2.045538   1.000000
     37          2.045538   1.000000
     38          2.045539   1.000000
     39          2.045539   1.000000
     40          2.624578   1.000000
     41          2.890477   1.000000
     42          2.890486   1.000000
     43          2.906852   1.000000
     44          3.184733   1.000000
     45          3.184734   1.000000
     46          3.401814   1.000000
     47          3.401814   1.000000
     48          3.401815   1.000000
     49          3.401815   1.000000
     50          4.208016   1.000000
     51          4.208018   1.000000
     52          4.430321   1.000000
     53          4.430321   1.000000
     54          4.507951   1.000000
     55          4.507951   1.000000
     56          4.507953   1.000000
     57          4.507953   1.000000
     58          4.572609   1.000000
     59          4.572610   1.000000
     60          5.340962   1.000000
     61          5.340963   1.000000
     62          5.340967   1.000000
     63          5.340968   1.000000
     64          5.351407   1.000000
     65          5.351408   1.000000
     66          5.635115   1.000000
     67          5.635117   1.000000
     68          5.635120   1.000000
     69          5.635121   1.000000
     70          5.776777   1.000000
     71          5.776779   1.000000
     72          5.807669   1.000000
     73         11.663634   0.000000
     74         13.207317   0.000000
     75         13.207330   0.000000
     76         14.669662   0.000000
     77         14.669686   0.000000
     78         14.715411   0.000000
     79         16.176684   0.000000
     80         16.176699   0.000000
     81         16.181469   0.000000
     82         17.078847   0.000000
     83         17.078958   0.000000
     84         17.146950   0.000000
     85         17.147115   0.000000
     86         17.248431   0.000000
     87         17.735195   0.000000
     88         17.745235   0.000000
 
  0.6666667E-01  0.3780041E-17  0.0000000E+00  0.6666667E-02
      1        -13.191140   1.000000
      2        -12.741834   1.000000
      3        -12.741705   1.000000
      4        -11.665540   1.000000
      5        -11.664780   1.000000
      6        -10.989364   1.000000
      7        -10.746763   1.000000
      8        -10.738979   1.000000
      9        -10.735466   1.000000
     10        -10.735211   1.000000
     11        -10.612509   1.000000
     12        -10.604488   1.000000
     13        -10.584432   1.000000
     14        -10.577198   1.000000
     15        -10.452463   1.000000
     16        -10.449881   1.000000
     17        -10.423760   1.000000
     18        -10.423751   1.000000
     19         -0.926371   1.000000
     20         -0.070269   1.000000
     21          0.056840   1.000000
     22          0.068709   1.000000
     23          0.386204   1.000000
     24          0.417271   1.000000
     25          0.428845   1.000000
     26          0.541258   1.000000
     27          0.561228   1.000000
     28          0.617140   1.000000
     29          0.932338   1.000000
     30          1.026772   1.000000
     31          1.055340   1.000000
     32          1.100739   1.000000
     33          1.288944   1.000000
     34          1.597768   1.000000
     35          1.918063   1.000000
     36          1.966804   1.000000
     37          1.989542   1.000000
     38          2.091106   1.000000
     39          2.127934   1.000000
     40          2.726649   1.000000
     41          2.943051   1.000000
     42          2.961371   1.000000
     43          2.970172   1.000000
     44          3.116693   1.000000
     45          3.179165   1.000000
     46          3.221795   1.000000
     47          3.310097   1.000000
     48          3.592122   1.000000
     49          3.642630   1.000000
     50          4.154312   1.000000
     51          4.183822   1.000000
     52          4.373003   1.000000
     53          4.386934   1.000000
     54          4.394618   1.000000
     55          4.451332   1.000000
     56          4.569959   1.000000
     57          4.584930   1.000000
     58          4.592671   1.000000
     59          4.622491   1.000000
     60          5.260780   1.000000
     61          5.292978   1.000000
     62          5.302118   1.000000
     63          5.316563   1.000000
     64          5.317194   1.000000
     65          5.352378   1.000000
     66          5.585138   1.000000
     67          5.604761   1.000000
     68          5.615333   1.000000
     69          5.629238   1.000000
     70          5.699507   1.000000
     71          5.779800   1.000000
     72          5.802686   1.000000
     73         11.767091   0.000000
     74         13.278294   0.000000
     75         13.278344   0.000000
     76         14.747695   0.000000
     77         14.747739   0.000000
     78         14.801023   0.000000
     79         16.077021   0.000000
     80         16.202823   0.000000
     81         16.207818   0.000000
     82         16.941016   0.000000
     83         17.018206   0.000000
     84         17.027672   0.000000
     85         17.167978   0.000000
     86         17.198296   0.000000
     87         17.425237   0.000000
     88         17.655814   0.000000
 
  0.1333333E+00  0.6603121E-17  0.0000000E+00  0.6666667E-02
      1        -13.131080   1.000000
      2        -12.688350   1.000000
      3        -12.687217   1.000000
      4        -11.635908   1.000000
      5        -11.629263   1.000000
      6        -11.004322   1.000000
      7        -10.866086   1.000000
      8        -10.816693   1.000000
      9        -10.768024   1.000000
     10        -10.764018   1.000000
     11        -10.686509   1.000000
     12        -10.649825   1.000000
     13        -10.596654   1.000000
     14        -10.570126   1.000000
     15        -10.443551   1.000000
     16        -10.440078   1.000000
     17        -10.411833   1.000000
     18        -10.407862   1.000000
     19         -0.870071   1.000000
     20         -0.191838   1.000000
     21          0.014955   1.000000
     22          0.096053   1.000000
     23          0.289635   1.000000
     24          0.310190   1.000000
     25          0.313361   1.000000
     26          0.332109   1.000000
     27          0.522518   1.000000
     28          0.849252   1.000000
     29          1.076670   1.000000
     30          1.099159   1.000000
     31          1.197519   1.000000
     32          1.303079   1.000000
     33          1.309347   1.000000
     34          1.516758   1.000000
     35          1.949190   1.000000
     36          1.992469   1.000000
     37          2.121598   1.000000
     38          2.230572   1.000000
     39          2.293945   1.000000
     40          2.862904   1.000000
     41          2.918300   1.000000
     42          2.976993   1.000000
     43          3.108129   1.000000
     44          3.163592   1.000000
     45          3.167413   1.000000
     46          3.341694   1.000000
     47          3.444785   1.000000
     48          3.708238   1.000000
     49          3.900911   1.000000
     50          3.994012   1.000000
     51          4.154876   1.000000
     52          4.248542   1.000000
     53          4.262423   1.000000
     54          4.283663   1.000000
     55          4.464172   1.000000
     56          4.516680   1.000000
     57          4.607892   1.000000
     58          4.608651   1.000000
     59          4.740996   1.000000
     60          5.089200   1.000000
     61          5.160640   1.000000
     62          5.193000   1.000000
     63          5.199077   1.000000
     64          5.224884   1.000000
     65          5.338645   1.000000
     66          5.472250   1.000000
     67          5.527370   1.000000
     68          5.548269   1.000000
     69          5.571728   1.000000
     70          5.590041   1.000000
     71          5.775866   1.000000
     72          5.786246   1.000000
     73         12.053585   0.000000
     74         13.477416   0.000000
     75         13.477860   0.000000
     76         14.967719   0.000000
     77         14.968029   0.000000
     78         15.042551   0.000000
     79         15.859264   0.000000
     80         16.263532   0.000000
     81         16.302225   0.000000
     82         16.528054   0.000000
     83         16.812160   0.000000
     84         16.853350   0.000000
     85         17.036568   0.000000
     86         17.071318   0.000000
     87         17.245729   0.000000
     88         17.464223   0.000000
 
  0.2000000E+00  0.1871856E-16  0.0000000E+00  0.6666667E-02
      1        -13.032532   1.000000
      2        -12.601964   1.000000
      3        -12.597718   1.000000
      4        -11.600946   1.000000
      5        -11.571622   1.000000
      6        -11.068164   1.000000
      7        -11.005237   1.000000
      8        -10.901029   1.000000
      9        -10.812540   1.000000
     10        -10.802714   1.000000
     11        -10.774682   1.000000
     12        -10.719888   1.000000
     13        -10.611118   1.000000
     14        -10.557504   1.000000
     15        -10.482208   1.000000
     16        -10.463772   1.000000
     17        -10.385342   1.000000
     18        -10.382676   1.000000
     19         -0.784436   1.000000
     20         -0.262938   1.000000
     21         -0.050659   1.000000
     22          0.060992   1.000000
     23          0.131093   1.000000
     24          0.225372   1.000000
     25          0.239988   1.000000
     26          0.286368   1.000000
     27          0.516078   1.000000
     28          0.927197   1.000000
     29          1.178893   1.000000
     30          1.278209   1.000000
     31          1.281138   1.000000
     32          1.385706   1.000000
     33          1.474002   1.000000
     34          1.559183   1.000000
     35          1.969252   1.000000
     36          2.076357   1.000000
     37          2.233852   1.000000
     38          2.377846   1.000000
     39          2.692441   1.000000
     40          2.734993   1.000000
     41          2.738988   1.000000
     42          3.295548   1.000000
     43          3.302375   1.000000
     44          3.318318   1.000000
     45          3.320611   1.000000
     46          3.495196   1.000000
     47          3.609044   1.000000
     48          3.777435   1.000000
     49          3.791403   1.000000
     50          4.092074   1.000000
     51          4.125451   1.000000
     52          4.150949   1.000000
     53          4.158660   1.000000
     54          4.159540   1.000000
     55          4.387403   1.000000
     56          4.472732   1.000000
     57          4.565674   1.000000
     58          4.595274   1.000000
     59          4.827061   1.000000
     60          4.836729   1.000000
     61          4.861122   1.000000
     62          5.053581   1.000000
     63          5.110753   1.000000
     64          5.142634   1.000000
     65          5.303804   1.000000
     66          5.358520   1.000000
     67          5.452840   1.000000
     68          5.454180   1.000000
     69          5.498619   1.000000
     70          5.517182   1.000000
     71          5.753241   1.000000
     72          5.754549   1.000000
     73         12.470354   0.000000
     74         13.770153   0.000000
     75         13.772122   0.000000
     76         15.289918   0.000000
     77         15.291126   0.000000
     78         15.397428   0.000000
     79         15.609417   0.000000
     80         16.099536   0.000000
     81         16.310088   0.000000
     82         16.430775   0.000000
     83         16.522827   0.000000
     84         16.702168   0.000000
     85         16.742964   0.000000
     86         16.872268   0.000000
     87         17.048502   0.000000
     88         17.162952   0.000000
 
  0.2666667E+00  0.1320624E-16  0.0000000E+00  0.6666667E-02
      1        -12.898062   1.000000
      2        -12.487248   1.000000
      3        -12.475809   1.000000
      4        -11.599000   1.000000
      5        -11.495660   1.000000
      6        -11.193771   1.000000
      7        -11.121393   1.000000
      8        -11.005729   1.000000
      9        -10.934273   1.000000
     10        -10.843331   1.000000
     11        -10.783026   1.000000
     12        -10.743049   1.000000
     13        -10.651819   1.000000
     14        -10.559232   1.000000
     15        -10.543134   1.000000
     16        -10.490376   1.000000
     17        -10.376666   1.000000
     18        -10.371368   1.000000
     19         -0.696309   1.000000
     20         -0.249393   1.000000
     21         -0.136363   1.000000
     22         -0.110391   1.000000
     23          0.088566   1.000000
     24          0.141310   1.000000
     25          0.200465   1.000000
     26          0.390793   1.000000
     27          0.602153   1.000000
     28          0.846608   1.000000
     29          1.333191   1.000000
     30          1.365257   1.000000
     31          1.433806   1.000000
     32          1.459238   1.000000
     33          1.552169   1.000000
     34          1.767121   1.000000
     35          1.802413   1.000000
     36          2.202735   1.000000
     37          2.398747   1.000000
     38          2.587056   1.000000
     39          2.601163   1.000000
     40          2.888069   1.000000
     41          3.074897   1.000000
     42          3.267860   1.000000
     43          3.348719   1.000000
     44          3.463247   1.000000
     45          3.594594   1.000000
     46          3.618990   1.000000
     47          3.637278   1.000000
     48          3.672063   1.000000
     49          3.905252   1.000000
     50          3.928910   1.000000
     51          3.970032   1.000000
     52          4.164104   1.000000
     53          4.197388   1.000000
     54          4.246006   1.000000
     55          4.390002   1.000000
     56          4.407509   1.000000
     57          4.417669   1.000000
     58          4.524323   1.000000
     59          4.573468   1.000000
     60          4.625807   1.000000
     61          4.872597   1.000000
     62          4.949114   1.000000
     63          5.039787   1.000000
     64          5.114512   1.000000
     65          5.223681   1.000000
     66          5.347902   1.000000
     67          5.395378   1.000000
     68          5.398718   1.000000
     69          5.406738   1.000000
     70          5.414114   1.000000
     71          5.704714   1.000000
     72          5.714543   1.000000
     73         12.965380   0.000000
     74         14.114890   0.000000
     75         14.120723   0.000000
     76         15.348499   0.000000
     77         15.539163   0.000000
     78         15.651382   0.000000
     79         15.783822   0.000000
     80         15.830787   0.000000
     81         16.195451   0.000000
     82         16.212552   0.000000
     83         16.411679   0.000000
     84         16.479318   0.000000
     85         16.566653   0.000000
     86         16.686000   0.000000
     87         16.755087   0.000000
     88         16.874309   0.000000
 
  0.3333333E+00  0.1423689E-16  0.0000000E+00  0.6666667E-02
      1        -12.731370   1.000000
      2        -12.352463   1.000000
      3        -12.325065   1.000000
      4        -11.695012   1.000000
      5        -11.408300   1.000000
      6        -11.361601   1.000000
      7        -11.161194   1.000000
      8        -11.144636   1.000000
      9        -11.006113   1.000000
     10        -10.879011   1.000000
     11        -10.835119   1.000000
     12        -10.712336   1.000000
     13        -10.688967   1.000000
     14        -10.626229   1.000000
     15        -10.567315   1.000000
     16        -10.514529   1.000000
     17        -10.388400   1.000000
     18        -10.369411   1.000000
     19         -0.641980   1.000000
     20         -0.298936   1.000000
     21         -0.155134   1.000000
     22         -0.118575   1.000000
     23          0.028165   1.000000
     24          0.068625   1.000000
     25          0.189888   1.000000
     26          0.573938   1.000000
     27          0.772551   1.000000
     28          0.833940   1.000000
     29          1.311339   1.000000
     30          1.382727   1.000000
     31          1.527437   1.000000
     32          1.564208   1.000000
     33          1.591699   1.000000
     34          1.809953   1.000000
     35          1.937570   1.000000
     36          2.243818   1.000000
     37          2.440593   1.000000
     38          2.580980   1.000000
     39          2.831000   1.000000
     40          3.062987   1.000000
     41          3.188630   1.000000
     42          3.201396   1.000000
     43          3.315111   1.000000
     44          3.447936   1.000000
     45          3.589049   1.000000
     46          3.606006   1.000000
     47          3.615733   1.000000
     48          3.732489   1.000000
     49          3.832484   1.000000
     50          3.980667   1.000000
     51          4.130573   1.000000
     52          4.138642   1.000000
     53          4.168103   1.000000
     54          4.266639   1.000000
     55          4.268293   1.000000
     56          4.288406   1.000000
     57          4.482947   1.000000
     58          4.507609   1.000000
     59          4.537518   1.000000
     60          4.639233   1.000000
     61          4.818517   1.000000
     62          4.907058   1.000000
     63          4.951839   1.000000
     64          5.099901   1.000000
     65          5.161720   1.000000
     66          5.285619   1.000000
     67          5.310191   1.000000
     68          5.344974   1.000000
     69          5.395492   1.000000
     70          5.415350   1.000000
     71          5.637753   1.000000
     72          5.667231   1.000000
     73         13.501282   0.000000
     74         14.473825   0.000000
     75         14.485895   0.000000
     76         15.099576   0.000000
     77         15.263483   0.000000
     78         15.794669   0.000000
     79         15.837202   0.000000
     80         15.915787   0.000000
     81         16.054209   0.000000
     82         16.121227   0.000000
     83         16.122918   0.000000
     84         16.291796   0.000000
     85         16.303348   0.000000
     86         16.452306   0.000000
     87         16.685659   0.000000
     88         16.792270   0.000000
 
  0.4000000E+00 -0.1073921E-16  0.0000000E+00  0.6666667E-02
      1        -12.537597   1.000000
      2        -12.214180   1.000000
      3        -12.150355   1.000000
      4        -11.879980   1.000000
      5        -11.553475   1.000000
      6        -11.322426   1.000000
      7        -11.322029   1.000000
      8        -11.079576   1.000000
      9        -11.049512   1.000000
     10        -10.905259   1.000000
     11        -10.872119   1.000000
     12        -10.780559   1.000000
     13        -10.727018   1.000000
     14        -10.629605   1.000000
     15        -10.575565   1.000000
     16        -10.528650   1.000000
     17        -10.419913   1.000000
     18        -10.371629   1.000000
     19         -0.612121   1.000000
     20         -0.425399   1.000000
     21         -0.186857   1.000000
     22         -0.014758   1.000000
     23          0.011970   1.000000
     24          0.114735   1.000000
     25          0.203164   1.000000
     26          0.761502   1.000000
     27          0.869381   1.000000
     28          1.003434   1.000000
     29          1.105778   1.000000
     30          1.264158   1.000000
     31          1.590328   1.000000
     32          1.667321   1.000000
     33          1.784260   1.000000
     34          1.959567   1.000000
     35          2.106560   1.000000
     36          2.186438   1.000000
     37          2.245821   1.000000
     38          2.627202   1.000000
     39          2.718430   1.000000
     40          3.033894   1.000000
     41          3.045215   1.000000
     42          3.251529   1.000000
     43          3.409950   1.000000
     44          3.459517   1.000000
     45          3.490048   1.000000
     46          3.570172   1.000000
     47          3.576896   1.000000
     48          3.782658   1.000000
     49          3.883456   1.000000
     50          4.011669   1.000000
     51          4.177406   1.000000
     52          4.184822   1.000000
     53          4.197388   1.000000
     54          4.231182   1.000000
     55          4.243710   1.000000
     56          4.422176   1.000000
     57          4.551221   1.000000
     58          4.577524   1.000000
     59          4.611328   1.000000
     60          4.700314   1.000000
     61          4.757404   1.000000
     62          4.834608   1.000000
     63          4.864084   1.000000
     64          5.031338   1.000000
     65          5.127473   1.000000
     66          5.138795   1.000000
     67          5.283380   1.000000
     68          5.325751   1.000000
     69          5.428185   1.000000
     70          5.507040   1.000000
     71          5.560803   1.000000
     72          5.615246   1.000000
     73         14.054689   0.000000
     74         14.816544   0.000000
     75         14.833135   0.000000
     76         14.902925   0.000000
     77         14.991809   0.000000
     78         15.521802   0.000000
     79         15.571834   0.000000
     80         15.653112   0.000000
     81         15.707840   0.000000
     82         15.831300   0.000000
     83         15.904470   0.000000
     84         16.187808   0.000000
     85         16.552026   0.000000
     86         16.554513   0.000000
     87         16.737513   0.000000
     88         16.823469   0.000000
 
  0.4666667E+00  0.5138858E-16  0.0000000E+00  0.6666667E-02
      1        -12.323668   1.000000
      2        -12.111641   1.000000
      3        -12.099424   1.000000
      4        -11.958108   1.000000
      5        -11.755998   1.000000
      6        -11.437996   1.000000
      7        -11.261374   1.000000
      8        -11.071144   1.000000
      9        -10.982253   1.000000
     10        -10.924052   1.000000
     11        -10.886507   1.000000
     12        -10.833229   1.000000
     13        -10.832178   1.000000
     14        -10.590608   1.000000
     15        -10.581202   1.000000
     16        -10.513538   1.000000
     17        -10.466322   1.000000
     18        -10.373871   1.000000
     19         -0.576113   1.000000
     20         -0.516594   1.000000
     21         -0.204187   1.000000
     22         -0.032533   1.000000
     23         -0.023162   1.000000
     24          0.220089   1.000000
     25          0.413427   1.000000
     26          0.751285   1.000000
     27          0.884296   1.000000
     28          0.907502   1.000000
     29          1.204265   1.000000
     30          1.260192   1.000000
     31          1.727078   1.000000
     32          1.764281   1.000000
     33          1.919410   1.000000
     34          1.999294   1.000000
     35          2.052307   1.000000
     36          2.138941   1.000000
     37          2.329771   1.000000
     38          2.368643   1.000000
     39          2.641499   1.000000
     40          2.648479   1.000000
     41          3.182583   1.000000
     42          3.294672   1.000000
     43          3.331965   1.000000
     44          3.483061   1.000000
     45          3.562762   1.000000
     46          3.607611   1.000000
     47          3.672073   1.000000
     48          3.765405   1.000000
     49          3.818350   1.000000
     50          3.897055   1.000000
     51          4.132883   1.000000
     52          4.282922   1.000000
     53          4.317063   1.000000
     54          4.368833   1.000000
     55          4.388668   1.000000
     56          4.497643   1.000000
     57          4.579437   1.000000
     58          4.580340   1.000000
     59          4.604357   1.000000
     60          4.676646   1.000000
     61          4.746141   1.000000
     62          4.789171   1.000000
     63          4.790532   1.000000
     64          4.985396   1.000000
     65          5.078867   1.000000
     66          5.111883   1.000000
     67          5.192928   1.000000
     68          5.402629   1.000000
     69          5.482798   1.000000
     70          5.490134   1.000000
     71          5.556478   1.000000
     72          5.569145   1.000000
     73         14.612045   0.000000
     74         14.803033   0.000000
     75         14.830760   0.000000
     76         15.109642   0.000000
     77         15.115720   0.000000
     78         15.165485   0.000000
     79         15.326668   0.000000
     80         15.349660   0.000000
     81         15.466383   0.000000
     82         15.676139   0.000000
     83         15.720873   0.000000
     84         15.981785   0.000000
     85         16.719954   0.000000
     86         16.766166   0.000000
     87         16.821152   0.000000
     88         16.855242   0.000000
 
  0.6666667E-01  0.6666667E-01  0.0000000E+00  0.6666667E-02
      1        -13.151028   1.000000
      2        -12.705646   1.000000
      3        -12.705645   1.000000
      4        -11.643086   1.000000
      5        -11.643085   1.000000
      6        -10.996868   1.000000
      7        -10.813571   1.000000
      8        -10.813571   1.000000
      9        -10.758824   1.000000
     10        -10.757211   1.000000
     11        -10.645627   1.000000
     12        -10.645627   1.000000
     13        -10.584534   1.000000
     14        -10.584534   1.000000
     15        -10.435978   1.000000
     16        -10.435395   1.000000
     17        -10.419366   1.000000
     18        -10.419366   1.000000
     19         -0.888291   1.000000
     20         -0.162604   1.000000
     21          0.056569   1.000000
     22          0.056586   1.000000
     23          0.333065   1.000000
     24          0.333071   1.000000
     25          0.334687   1.000000
     26          0.455158   1.000000
     27          0.455159   1.000000
     28          0.766595   1.000000
     29          1.117175   1.000000
     30          1.117175   1.000000
     31          1.129148   1.000000
     32          1.241868   1.000000
     33          1.241868   1.000000
     34          1.533143   1.000000
     35          1.968350   1.000000
     36          1.968353   1.000000
     37          2.149233   1.000000
     38          2.149234   1.000000
     39          2.192616   1.000000
     40          2.898796   1.000000
     41          2.948530   1.000000
     42          2.948531   1.000000
     43          3.062778   1.000000
     44          3.111811   1.000000
     45          3.111816   1.000000
     46          3.351335   1.000000
     47          3.351336   1.000000
     48          3.760675   1.000000
     49          3.760675   1.000000
     50          4.094941   1.000000
     51          4.094942   1.000000
     52          4.274109   1.000000
     53          4.332855   1.000000
     54          4.378689   1.000000
     55          4.378690   1.000000
     56          4.522804   1.000000
     57          4.618351   1.000000
     58          4.669231   1.000000
     59          4.669233   1.000000
     60          5.169940   1.000000
     61          5.169942   1.000000
     62          5.186454   1.000000
     63          5.268892   1.000000
     64          5.313495   1.000000
     65          5.313497   1.000000
     66          5.519812   1.000000
     67          5.519814   1.000000
     68          5.572985   1.000000
     69          5.602111   1.000000
     70          5.602116   1.000000
     71          5.775766   1.000000
     72          5.800414   1.000000
     73         11.961561   0.000000
     74         13.413243   0.000000
     75         13.413255   0.000000
     76         14.896607   0.000000
     77         14.896631   0.000000
     78         14.964283   0.000000
     79         15.924525   0.000000
     80         16.258279   0.000000
     81         16.258293   0.000000
     82         16.742431   0.000000
     83         16.742440   0.000000
     84         16.892024   0.000000
     85         16.992303   0.000000
     86         17.342264   0.000000