       N       E                     dE             d eps       ncg     rms          rms(c)
DAV:   1     0.819910887812E+03    0.81991E+03   -0.77939E+04 17672   0.158E+03
DAV:   2    -0.197121200893E+03   -0.10170E+04   -0.99262E+03 21688   0.334E+02
DAV:   3    -0.247792010544E+03   -0.50671E+02   -0.50480E+02 20776   0.816E+01
DAV:   4    -0.248369133026E+03   -0.57712E+00   -0.57560E+00 20720   0.953E+00
DAV:   5    -0.248379056912E+03   -0.99239E-02   -0.99127E-02 20552   0.121E+00    0.294E+01
RMM:   6    -0.223737137300E+03    0.24642E+02   -0.10311E+02 17600   0.312E+01    0.775E+00
RMM:   7    -0.224338263991E+03   -0.60113E+00   -0.89438E+00 17600   0.849E+00    0.546E+00
RMM:   8    -0.224425461373E+03   -0.87197E-01   -0.81583E-01 17600   0.416E+00    0.726E-01
RMM:   9    -0.224434762734E+03   -0.93014E-02   -0.16057E-01 17643   0.127E+00    0.346E-01
RMM:  10    -0.224442162888E+03   -0.74002E-02   -0.78314E-02 17600   0.898E-01    0.353E-01
RMM:  11    -0.224440140402E+03    0.20225E-02   -0.94300E-03 17630   0.317E-01    0.132E-01
RMM:  12    -0.224440110081E+03    0.30321E-04   -0.52356E-03 17600   0.243E-01    0.423E-02
RMM:  13    -0.224440181604E+03   -0.71523E-04   -0.48567E-04 18227   0.716E-02    0.522E-02
RMM:  14    -0.224440133427E+03    0.48177E-04   -0.17050E-04 17600   0.408E-02    0.178E-02
RMM:  15    -0.224440132323E+03    0.11044E-05   -0.69878E-05 17632   0.249E-02    0.267E-03
RMM:  16    -0.224440133566E+03   -0.12437E-05   -0.11491E-05 16065   0.915E-03    0.138E-03
RMM:  17    -0.224440133810E+03   -0.24369E-06   -0.17276E-06 11228   0.357E-03
   1 F= -.22444013E+03 E0= -.22444013E+03  d E =-.224440E+03
       N       E                     dE             d eps       ncg     rms          rms(c)
DAV:   1    -0.224445053293E+03   -0.49197E-02   -0.11427E-01 19600   0.145E+00    0.513E-01
RMM:   2    -0.224440298957E+03    0.47543E-02   -0.19879E-02 17600   0.477E-01    0.986E-02
RMM:   3    -0.224440343875E+03   -0.44918E-04   -0.19522E-03 17600   0.145E-01    0.307E-02
RMM:   4    -0.224440309160E+03    0.34715E-04   -0.18785E-04 17600   0.593E-02    0.160E-02
RMM:   5    -0.224440304297E+03    0.48633E-05   -0.15200E-05 17599   0.159E-02    0.574E-03
RMM:   6    -0.224440304409E+03   -0.11198E-06   -0.26601E-05 17600   0.164E-02    0.766E-03
RMM:   7    -0.224440302936E+03    0.14733E-05   -0.47182E-06 15631   0.734E-03    0.246E-03
RMM:   8    -0.224440302858E+03    0.77511E-07   -0.15202E-06 10399   0.424E-03
   2 F= -.22444030E+03 E0= -.22444030E+03  d E =-.169048E-03
       N       E                     dE             d eps       ncg     rms          rms(c)
DAV:   1    -0.224441408490E+03   -0.11056E-02   -0.21369E-02 20360   0.625E-01    0.223E-01
RMM:   2    -0.224440526214E+03    0.88228E-03   -0.37727E-03 17600   0.207E-01    0.422E-02
RMM:   3    -0.224440536155E+03   -0.99412E-05   -0.35844E-04 17600   0.623E-02    0.133E-02
RMM:   4    -0.224440528663E+03    0.74921E-05   -0.32271E-05 17600   0.249E-02    0.646E-03
RMM:   5    -0.224440528541E+03    0.12175E-06   -0.26698E-06 11314   0.670E-03
   3 F= -.22444053E+03 E0= -.22444053E+03  d E =-.394731E-03
