 vasp.6.3.2 27Jun22 (build Mar 15 2023 15:45:48) complex                        
  
 executed on             LinuxIFC date 2024.07.18  23:05:20
 running on    4 total cores
 distrk:  each k-point on    1 cores,    4 groups
 distr:  one band on NCORE=   1 cores,    1 groups


--------------------------------------------------------------------------------------------------------


 INCAR:
   SYSTEM = ni3al
   PREC = Accurate
   EDIFF = 1E-6
   EDIFFG = -1E-2
   ISTART = 0
   ICHARG = 2
   LREAL = Auto
   NSW = 300
   ISIF = 3
   IBRION = 2
   ISMEAR = 0
   SIGMA = 0.1
   ENCUT = 530
   ALGO = Fast
   LMAXMIX = 4
   AMIN = 0.01
   NELM = 150
   LCHARG = .FALSE.
   LWAVE = .FALSE.
   KPAR = 8

 POTCAR:   PAW_PBE Al 04Jan2001                   
 POTCAR:   PAW_PBE O 08Apr2002                    
 POTCAR:   PAW_PBE Al 04Jan2001                   
   VRHFIN =Al: s2p1                                                                                 
   LEXCH  = PE                                                                                      
   EATOM  =    53.5387 eV,    3.9350 Ry                                                             
                                                                                                    
   TITEL  = PAW_PBE Al 04Jan2001                                                                    
   LULTRA =        F    use ultrasoft PP ?                                                          
   IUNSCR =        1    unscreen: 0-lin 1-nonlin 2-no                                               
   RPACOR =    1.500    partial core radius                                                         
   POMASS =   26.982; ZVAL   =    3.000    mass and valenz                                          
   RCORE  =    1.900    outmost cutoff radius                                                       
   RWIGS  =    2.650; RWIGS  =    1.402    wigner-seitz radius (au A)                               
   ENMAX  =  240.300; ENMIN  =  180.225 eV                                                          
   ICORE  =        2    local potential                                                             
   LCOR   =        T    correct aug charges                                                         
   LPAW   =        T    paw PP                                                                      
   EAUG   =  291.052                                                                                
   DEXC   =    -.041                                                                                
   RMAX   =    2.974    core radius for proj-oper                                                   
   RAUG   =    1.300    factor for augmentation sphere                                              
   RDEP   =    1.966    radius for radial grids                                                     
   QCUT   =   -4.203; QGAM   =    8.405    optimization parameters                                  
                                                                                                    
   Description                                                                                      
     l     E      TYP  RCUT    TYP  RCUT                                                            
     0   .000     23  1.900                                                                         
     0   .000     23  1.900                                                                         
     1   .000     23  1.900                                                                         
     1  1.000     23  1.900                                                                         
     2   .000      7  1.900                                                                         
  local pseudopotential read in
  partial core-charges read in
  atomic valenz-charges read in
  non local Contribution for L=           0  read in
    real space projection operators read in
  non local Contribution for L=           0  read in
    real space projection operators read in
  non local Contribution for L=           1  read in
    real space projection operators read in
  non local Contribution for L=           1  read in
    real space projection operators read in
    PAW grid and wavefunctions read in
 
   number of l-projection  operators is LMAX  =           4
   number of lm-projection operators is LMMAX =           8
 
 POTCAR:   PAW_PBE O 08Apr2002                    
   VRHFIN =O: s2p4                                                                                  
   LEXCH  = PE                                                                                      
   EATOM  =   432.3788 eV,   31.7789 Ry                                                             
                                                                                                    
   TITEL  = PAW_PBE O 08Apr2002                                                                     
   LULTRA =        F    use ultrasoft PP ?                                                          
   IUNSCR =        0    unscreen: 0-lin 1-nonlin 2-no                                               
   RPACOR =     .000    partial core radius                                                         
   POMASS =   16.000; ZVAL   =    6.000    mass and valenz                                          
   RCORE  =    1.520    outmost cutoff radius                                                       
   RWIGS  =    1.550; RWIGS  =     .820    wigner-seitz radius (au A)                               
   ENMAX  =  400.000; ENMIN  =  300.000 eV                                                          
   ICORE  =        2    local potential                                                             
   LCOR   =        T    correct aug charges                                                         
   LPAW   =        T    paw PP                                                                      
   EAUG   =  605.392                                                                                
   DEXC   =     .000                                                                                
   RMAX   =    2.264    core radius for proj-oper                                                   
   RAUG   =    1.300    factor for augmentation sphere                                              
   RDEP   =    1.550    radius for radial grids                                                     
   QCUT   =   -5.520; QGAM   =   11.041    optimization parameters                                  
                                                                                                    
   Description                                                                                      
     l     E      TYP  RCUT    TYP  RCUT                                                            
     0   .000     23  1.200                                                                         
     0  -.700     23  1.200                                                                         
     1   .000     23  1.520                                                                         
     1   .600     23  1.520                                                                         
     2   .000      7  1.500                                                                         
  local pseudopotential read in
  atomic valenz-charges read in
  non local Contribution for L=           0  read in
    real space projection operators read in
  non local Contribution for L=           0  read in
    real space projection operators read in
  non local Contribution for L=           1  read in
    real space projection operators read in
  non local Contribution for L=           1  read in
    real space projection operators read in
    PAW grid and wavefunctions read in
 
   number of l-projection  operators is LMAX  =           4
   number of lm-projection operators is LMMAX =           8
 
 Optimization of the real space projectors (new method)

 maximal supplied QI-value         = 19.84
 optimisation between [QCUT,QGAM] = [ 11.71, 23.41] = [ 38.38,153.51] Ry 
 Optimized for a Real-space Cutoff    1.20 Angstroem

   l    n(q)    QCUT    max X(q) W(low)/X(q) W(high)/X(q)  e(spline) 
   0      8    11.707    13.410    0.18E-04    0.71E-05    0.53E-08
   0      8    11.707   140.052    0.55E-04    0.13E-03    0.46E-07
   1      8    11.707     9.624    0.67E-05    0.22E-04    0.23E-07
   1      8    11.707    53.353    0.14E-03    0.15E-04    0.69E-07
 Optimization of the real space projectors (new method)

 maximal supplied QI-value         = 24.76
 optimisation between [QCUT,QGAM] = [ 11.64, 23.52] = [ 37.91,154.88] Ry 
 Optimized for a Real-space Cutoff    1.13 Angstroem

   l    n(q)    QCUT    max X(q) W(low)/X(q) W(high)/X(q)  e(spline) 
   0      8    11.635     4.192    0.29E-04    0.72E-04    0.33E-07
   0      8    11.635     8.473    0.92E-04    0.28E-03    0.26E-06
   1      7    11.635     2.474    0.16E-04    0.69E-04    0.27E-07
   1      7    11.635     3.912    0.25E-03    0.20E-03    0.26E-06
 PAW_PBE Al 04Jan2001                   :
 energy of atom  1       EATOM=  -53.5387
 kinetic energy error for atom=    0.0002 (will be added to EATOM!!)
 PAW_PBE O 08Apr2002                    :
 energy of atom  2       EATOM= -432.3788
 kinetic energy error for atom=    0.0203 (will be added to EATOM!!)
 
 
 POSCAR: Al12 O18
  positions in direct lattice
  No initial velocities read in
 exchange correlation table for  LEXCH =        8
   RHO(1)=    0.500       N(1)  =     2000
   RHO(2)=  100.500       N(2)  =     4000

 VTST: version 4.2, (08/11/21)

 CHAIN: initializing optimizer
 
 OPT: Using VASP Conjugate-Gradient optimizer
 CHAIN: Read ICHAIN            0
 
 POSCAR: Al12 O18
  positions in direct lattice
  No initial velocities read in
 


--------------------------------------------------------------------------------------------------------


 ion  position               nearest neighbor table
   1  0.333  0.667  0.815-  14 1.87  17 1.87  18 1.87  19 1.99  21 1.99  22 1.99   6 2.68   8 2.82
                             8 2.82   8 2.82   2 3.25   2 3.25   2 3.25
   2  0.667  0.333  0.685-  14 1.87  18 1.87  17 1.87  16 1.99  13 1.99  15 1.99   9 2.68   3 2.82
                             3 2.82   3 2.82   1 3.25   1 3.25   1 3.25
   3  0.000  0.000  0.648-  15 1.87  13 1.87  16 1.87  14 1.99  17 1.99  18 1.99   8 2.68   2 2.82
                             2 2.82   2 2.82   4 3.25   4 3.25   4 3.25
   4  0.333  0.667  0.519-  13 1.87  16 1.87  15 1.87  26 1.99  29 1.99  30 1.99  11 2.68   9 2.82
                             9 2.82   9 2.82   3 3.25   3 3.25   3 3.25
   5  0.000  0.000  0.148-  20 1.87  23 1.87  24 1.87  25 1.99  27 1.99  28 1.99  10 2.68  12 2.82
                            12 2.82  12 2.82   6 3.25   6 3.25   6 3.25
   6  0.333  0.667  0.019-  23 1.87  24 1.87  20 1.87  22 1.99  19 1.99  21 1.99   1 2.68   7 2.82
                             7 2.82   7 2.82   5 3.25   5 3.25   5 3.25
   7  0.667  0.333  0.981-  22 1.87  19 1.87  21 1.87  20 1.99  23 1.99  24 1.99  12 2.68   6 2.82
                             6 2.82   6 2.82   8 3.25   8 3.25   8 3.25
   8  0.000  0.000  0.852-  21 1.87  22 1.87  19 1.87  14 1.99  17 1.99  18 1.99   3 2.68   1 2.82
                             1 2.82   1 2.82   7 3.25   7 3.25   7 3.25
   9  0.667  0.333  0.481-  30 1.87  29 1.87  26 1.87  13 1.99  15 1.99  16 1.99   2 2.68   4 2.82
                             4 2.82   4 2.82  10 3.25  10 3.25  10 3.25
  10  0.000  0.000  0.352-  26 1.87  30 1.87  29 1.87  28 1.99  25 1.99  27 1.99   5 2.68  11 2.82
                            11 2.82  11 2.82   9 3.25   9 3.25   9 3.25
  11  0.333  0.667  0.315-  27 1.87  25 1.87  28 1.87  26 1.99  29 1.99  30 1.99   4 2.68  10 2.82
                            10 2.82  10 2.82  12 3.25  12 3.25  12 3.25
  12  0.667  0.333  0.185-  27 1.87  28 1.87  25 1.87  20 1.99  23 1.99  24 1.99   7 2.68   5 2.82
                             5 2.82   5 2.82  11 3.25  11 3.25  11 3.25
  13  0.361  0.333  0.583-   3 1.87   4 1.87   2 1.99   9 1.99
  14  0.694  0.694  0.750-   1 1.87   2 1.87   3 1.99   8 1.99
  15  0.973  0.639  0.583-   3 1.87   4 1.87   2 1.99   9 1.99
  16  0.667  0.027  0.583-   3 1.87   4 1.87   2 1.99   9 1.99
  17  0.000  0.306  0.750-   1 1.87   2 1.87   3 1.99   8 1.99
  18  0.306  0.000  0.750-   2 1.87   1 1.87   3 1.99   8 1.99
  19  0.027  0.667  0.917-   8 1.87   7 1.87   1 1.99   6 1.99
  20  0.361  0.027  0.083-   5 1.87   6 1.87  12 1.99   7 1.99
  21  0.639  0.973  0.917-   8 1.87   7 1.87   1 1.99   6 1.99
  22  0.333  0.361  0.917-   8 1.87   7 1.87   1 1.99   6 1.99
  23  0.667  0.639  0.083-   5 1.87   6 1.87  12 1.99   7 1.99
  24  0.973  0.333  0.083-   5 1.87   6 1.87  12 1.99   7 1.99
  25  0.694  0.000  0.250-  11 1.87  12 1.87   5 1.99  10 1.99
  26  0.027  0.361  0.417-  10 1.87   9 1.87  11 1.99   4 1.99
  27  0.306  0.306  0.250-  12 1.87  11 1.87   5 1.99  10 1.99
  28  0.000  0.694  0.250-  12 1.87  11 1.87   5 1.99  10 1.99
  29  0.333  0.973  0.417-  10 1.87   9 1.87  11 1.99   4 1.99
  30  0.639  0.667  0.417-  10 1.87   9 1.87  11 1.99   4 1.99
 
  LATTYP: Found a hexagonal cell.
 ALAT       =     4.8050272209
 C/A-ratio  =     2.7296938487
  
  Lattice vectors:
  
 A1 = (   2.4025136104,  -4.1612756391,   0.0000000000)
 A2 = (   2.4025136104,   4.1612756391,   0.0000000000)
 A3 = (   0.0000000000,   0.0000000000,  13.1162532478)


Analysis of symmetry for initial positions (statically):
=====================================================================
 Subroutine PRICEL returns following result:
 
  LATTYP: Found a trigonal (rhomboedric) cell.
 ALAT       =     5.1779549700
 COS(alpha) =     0.5694286086
  
  Lattice vectors:
  
 A1 = (  -2.4025136104,  -1.3870918797,   4.3720844159)
 A2 = (   2.4025136104,  -1.3870918797,   4.3720844159)
 A3 = (  -0.0000000000,   2.7741837594,   4.3720844159)
 
   3 primitive cells build up your supercell.
 

 Routine SETGRP: Setting up the symmetry group for a 
 hexagonal supercell.


 Subroutine GETGRP returns: Found 12 space group operations
 (whereof  6 operations were pure point group operations)
 out of a pool of 24 trial point group operations.


The static configuration has the point symmetry S_6 .
 The point group associated with its full space group is D_3d.


Analysis of symmetry for dynamics (positions and initial velocities):
=====================================================================
 Subroutine PRICEL returns following result:
 
  LATTYP: Found a trigonal (rhomboedric) cell.
 ALAT       =     5.1779549700
 COS(alpha) =     0.5694286086
  
  Lattice vectors:
  
 A1 = (  -2.4025136104,  -1.3870918797,   4.3720844159)
 A2 = (   2.4025136104,  -1.3870918797,   4.3720844159)
 A3 = (  -0.0000000000,   2.7741837594,   4.3720844159)
 
   3 primitive cells build up your supercell.
 

 Routine SETGRP: Setting up the symmetry group for a 
 hexagonal supercell.


 Subroutine GETGRP returns: Found 12 space group operations
 (whereof  6 operations were pure point group operations)
 out of a pool of 24 trial point group operations.


The dynamic configuration has the point symmetry S_6 .
 The point group associated with its full space group is D_3d.


 Subroutine INISYM returns: Found 12 space group operations
 (whereof  6 operations are pure point group operations),
 and found     3 'primitive' translations


----------------------------------------------------------------------------------------

                                     Primitive cell                                     

  volume of cell :      87.4200

  direct lattice vectors                    reciprocal lattice vectors
    -2.402513610 -1.387091880  4.372084416    -0.208115366 -0.120155463  0.076241285
     2.402513610 -1.387091880  4.372084416     0.208115366 -0.120155463  0.076241285
    -0.000000000  2.774183759  4.372084416     0.000000000  0.240310925  0.076241285

  length of vectors
     5.177954970  5.177954970  5.177954970     0.252115201  0.252115201  0.252115201

  position of ions in fractional coordinates (direct lattice)
     0.147904000  0.147904000  0.147904000
     0.352096000  0.352096000  0.352096000
     0.647904000  0.647904000  0.647904000
     0.852096000  0.852096000  0.852096000
     0.250000000  0.943854500  0.556145500
     0.056145500  0.443854500  0.750000000
     0.943854500  0.556145500  0.250000000
     0.556145500  0.250000000  0.943854500
     0.443854500  0.750000000  0.056145500
     0.750000000  0.056145500  0.443854500

  ion indices of the primitive-cell ions
   primitive index   ion index
                 1           1
                 2           6
                 3           7
                 4           4
                 5          19
                 6          14
                 7          15
                 8          22
                 9          23
                10          18

----------------------------------------------------------------------------------------

 
 
 KPOINTS: K-Spacing Value to Generate K-Mesh: 0.02

Automatic generation of k-mesh.
 Grid dimensions read from file:
 generate k-points for:   15   15    4

 Generating k-lattice:

  Cartesian coordinates                     Fractional coordinates (reciprocal lattice)
     0.013874358 -0.008010364  0.000000000     0.066666667  0.000000000  0.000000000
     0.013874358  0.008010364  0.000000000     0.000000000  0.066666667  0.000000000
     0.000000000  0.000000000  0.019060321     0.000000000  0.000000000  0.250000000

  Length of vectors
     0.016020728  0.016020728  0.019060321

  Shift w.r.t. Gamma in fractional coordinates (k-lattice)
     0.000000000  0.000000000  0.000000000

 
 Subroutine IBZKPT returns following result:
 ===========================================
 
 Found    100 irreducible k-points:
 
 Following reciprocal coordinates:
            Coordinates               Weight
  0.000000  0.000000  0.000000      1.000000
  0.066667  0.000000  0.000000      6.000000
  0.133333  0.000000  0.000000      6.000000
  0.200000  0.000000  0.000000      6.000000
  0.266667  0.000000  0.000000      6.000000
  0.333333  0.000000  0.000000      6.000000
  0.400000 -0.000000  0.000000      6.000000
  0.466667  0.000000  0.000000      6.000000
  0.066667  0.066667  0.000000      6.000000
  0.133333  0.066667  0.000000     12.000000
  0.200000  0.066667  0.000000     12.000000
  0.266667  0.066667  0.000000     12.000000
  0.333333  0.066667  0.000000     12.000000
  0.400000  0.066667  0.000000     12.000000
  0.466667  0.066667  0.000000      6.000000
  0.133333  0.133333  0.000000      6.000000
  0.200000  0.133333  0.000000     12.000000
  0.266667  0.133333  0.000000     12.000000
  0.333333  0.133333  0.000000     12.000000
  0.400000  0.133333  0.000000     12.000000
  0.200000  0.200000  0.000000      6.000000
  0.266667  0.200000  0.000000     12.000000
  0.333333  0.200000  0.000000     12.000000
  0.400000  0.200000  0.000000      6.000000
  0.266667  0.266667  0.000000      6.000000
  0.333333  0.266667  0.000000     12.000000
  0.333333  0.333333  0.000000      2.000000
  0.000000  0.000000  0.250000      2.000000
  0.066667  0.000000  0.250000      6.000000
  0.000000  0.066667  0.250000      6.000000
  0.133333  0.000000  0.250000      6.000000
  0.000000  0.133333  0.250000      6.000000
  0.200000  0.000000  0.250000      6.000000
  0.000000  0.200000  0.250000      6.000000
  0.266667  0.000000  0.250000      6.000000
  0.000000  0.266667  0.250000      6.000000
  0.333333  0.000000  0.250000      6.000000
  0.000000  0.333333  0.250000      6.000000
  0.400000 -0.000000  0.250000      6.000000
 -0.000000  0.400000  0.250000      6.000000
  0.466667  0.000000  0.250000      6.000000
  0.000000  0.466667  0.250000      6.000000
  0.066667  0.066667  0.250000     12.000000
  0.133333  0.066667  0.250000     12.000000
 -0.066667  0.200000  0.250000     12.000000
  0.200000  0.066667  0.250000     12.000000
 -0.066667  0.266667  0.250000     12.000000
  0.266667  0.066667  0.250000     12.000000
 -0.066667  0.333333  0.250000     12.000000
  0.333333  0.066667  0.250000     12.000000
 -0.066667  0.400000  0.250000     12.000000
  0.400000  0.066667  0.250000     12.000000
 -0.066667  0.466667  0.250000     12.000000
  0.466667  0.066667  0.250000     12.000000
  0.133333  0.133333  0.250000     12.000000
  0.200000  0.133333  0.250000     12.000000
 -0.133333  0.333333  0.250000     12.000000
  0.266667  0.133333  0.250000     12.000000
 -0.133333  0.400000  0.250000     12.000000
  0.333333  0.133333  0.250000     12.000000
 -0.133333  0.466667  0.250000     12.000000
  0.400000  0.133333  0.250000     12.000000
 -0.133333 -0.466667  0.250000     12.000000
  0.200000  0.200000  0.250000     12.000000
  0.266667  0.200000  0.250000     12.000000
 -0.200000  0.466667  0.250000     12.000000
  0.333333  0.200000  0.250000     12.000000
 -0.200000 -0.466667  0.250000     12.000000
  0.400000  0.200000  0.250000     12.000000
  0.266667  0.266667  0.250000     12.000000
  0.333333  0.266667  0.250000     12.000000
 -0.266667 -0.400000  0.250000     12.000000
  0.333333  0.333333  0.250000      4.000000
  0.000000  0.000000  0.500000      1.000000
  0.066667  0.000000  0.500000      6.000000
  0.133333  0.000000  0.500000      6.000000
  0.200000  0.000000  0.500000      6.000000
  0.266667  0.000000  0.500000      6.000000
  0.333333  0.000000  0.500000      6.000000
  0.400000 -0.000000  0.500000      6.000000
  0.466667  0.000000  0.500000      6.000000
  0.066667  0.066667  0.500000      6.000000
  0.133333  0.066667  0.500000     12.000000
  0.200000  0.066667  0.500000     12.000000
  0.266667  0.066667  0.500000     12.000000
  0.333333  0.066667  0.500000     12.000000
  0.400000  0.066667  0.500000     12.000000
  0.466667  0.066667  0.500000      6.000000
  0.133333  0.133333  0.500000      6.000000
  0.200000  0.133333  0.500000     12.000000
  0.266667  0.133333  0.500000     12.000000
  0.333333  0.133333  0.500000     12.000000
  0.400000  0.133333  0.500000     12.000000
  0.200000  0.200000  0.500000      6.000000
  0.266667  0.200000  0.500000     12.000000
  0.333333  0.200000  0.500000     12.000000
  0.400000  0.200000  0.500000      6.000000
  0.266667  0.266667  0.500000      6.000000
  0.333333  0.266667  0.500000     12.000000
  0.333333  0.333333  0.500000      2.000000
 
 Following cartesian coordinates:
            Coordinates               Weight
  0.000000  0.000000  0.000000      1.000000
  0.013874 -0.008010  0.000000      6.000000
  0.027749 -0.016021  0.000000      6.000000
  0.041623 -0.024031  0.000000      6.000000
  0.055497 -0.032041  0.000000      6.000000
  0.069372 -0.040052  0.000000      6.000000
  0.083246 -0.048062  0.000000      6.000000
  0.097121 -0.056073  0.000000      6.000000
  0.027749 -0.000000  0.000000      6.000000
  0.041623 -0.008010  0.000000     12.000000
  0.055497 -0.016021  0.000000     12.000000
  0.069372 -0.024031  0.000000     12.000000
  0.083246 -0.032041  0.000000     12.000000
  0.097121 -0.040052  0.000000     12.000000
  0.110995 -0.048062  0.000000      6.000000
  0.055497 -0.000000  0.000000      6.000000
  0.069372 -0.008010  0.000000     12.000000
  0.083246 -0.016021  0.000000     12.000000
  0.097121 -0.024031  0.000000     12.000000
  0.110995 -0.032041  0.000000     12.000000
  0.083246  0.000000  0.000000      6.000000
  0.097121 -0.008010  0.000000     12.000000
  0.110995 -0.016021  0.000000     12.000000
  0.124869 -0.024031  0.000000      6.000000
  0.110995 -0.000000  0.000000      6.000000
  0.124869 -0.008010  0.000000     12.000000
  0.138744  0.000000  0.000000      2.000000
  0.000000  0.000000  0.019060      2.000000
  0.013874 -0.008010  0.019060      6.000000
  0.013874  0.008010  0.019060      6.000000
  0.027749 -0.016021  0.019060      6.000000
  0.027749  0.016021  0.019060      6.000000
  0.041623 -0.024031  0.019060      6.000000
  0.041623  0.024031  0.019060      6.000000
  0.055497 -0.032041  0.019060      6.000000
  0.055497  0.032041  0.019060      6.000000
  0.069372 -0.040052  0.019060      6.000000
  0.069372  0.040052  0.019060      6.000000
  0.083246 -0.048062  0.019060      6.000000
  0.083246  0.048062  0.019060      6.000000
  0.097121 -0.056073  0.019060      6.000000
  0.097121  0.056073  0.019060      6.000000
  0.027749 -0.000000  0.019060     12.000000
  0.041623 -0.008010  0.019060     12.000000
  0.027749  0.032041  0.019060     12.000000
  0.055497 -0.016021  0.019060     12.000000
  0.041623  0.040052  0.019060     12.000000
  0.069372 -0.024031  0.019060     12.000000
  0.055497  0.048062  0.019060     12.000000
  0.083246 -0.032041  0.019060     12.000000
  0.069372  0.056073  0.019060     12.000000
  0.097121 -0.040052  0.019060     12.000000
  0.083246  0.064083  0.019060     12.000000
  0.110995 -0.048062  0.019060     12.000000
  0.055497 -0.000000  0.019060     12.000000
  0.069372 -0.008010  0.019060     12.000000
  0.041623  0.056073  0.019060     12.000000
  0.083246 -0.016021  0.019060     12.000000
  0.055497  0.064083  0.019060     12.000000
  0.097121 -0.024031  0.019060     12.000000
  0.069372  0.072093  0.019060     12.000000
  0.110995 -0.032041  0.019060     12.000000
 -0.124869 -0.040052  0.019060     12.000000
  0.083246  0.000000  0.019060     12.000000
  0.097121 -0.008010  0.019060     12.000000
  0.055497  0.080104  0.019060     12.000000
  0.110995 -0.016021  0.019060     12.000000
 -0.138744 -0.032041  0.019060     12.000000
  0.124869 -0.024031  0.019060     12.000000
  0.110995 -0.000000  0.019060     12.000000
  0.124869 -0.008010  0.019060     12.000000
 -0.138744 -0.016021  0.019060     12.000000
  0.138744  0.000000  0.019060      4.000000
  0.000000  0.000000  0.038121      1.000000
  0.013874 -0.008010  0.038121      6.000000
  0.027749 -0.016021  0.038121      6.000000
  0.041623 -0.024031  0.038121      6.000000
  0.055497 -0.032041  0.038121      6.000000
  0.069372 -0.040052  0.038121      6.000000
  0.083246 -0.048062  0.038121      6.000000
  0.097121 -0.056073  0.038121      6.000000
  0.027749 -0.000000  0.038121      6.000000
  0.041623 -0.008010  0.038121     12.000000
  0.055497 -0.016021  0.038121     12.000000
  0.069372 -0.024031  0.038121     12.000000
  0.083246 -0.032041  0.038121     12.000000
  0.097121 -0.040052  0.038121     12.000000
  0.110995 -0.048062  0.038121      6.000000
  0.055497 -0.000000  0.038121      6.000000
  0.069372 -0.008010  0.038121     12.000000
  0.083246 -0.016021  0.038121     12.000000
  0.097121 -0.024031  0.038121     12.000000
  0.110995 -0.032041  0.038121     12.000000
  0.083246  0.000000  0.038121      6.000000
  0.097121 -0.008010  0.038121     12.000000
  0.110995 -0.016021  0.038121     12.000000
  0.124869 -0.024031  0.038121      6.000000
  0.110995 -0.000000  0.038121      6.000000
  0.124869 -0.008010  0.038121     12.000000
  0.138744  0.000000  0.038121      2.000000
 


--------------------------------------------------------------------------------------------------------




 Dimension of arrays:
   k-points           NKPTS =    100   k-points in BZ     NKDIM =    100   number of bands    NBANDS=     88
   number of dos      NEDOS =    301   number of ions     NIONS =     30
   non local maximal  LDIM  =      4   non local SUM 2l+1 LMDIM =      8
   total plane-waves  NPLWV = 127008
   max r-space proj   IRMAX =   3549   max aug-charges    IRDMAX=  19045
   dimension x,y,z NGX =    36 NGY =   36 NGZ =   98
   dimension x,y,z NGXF=    72 NGYF=   72 NGZF=  196
   support grid    NGXF=    72 NGYF=   72 NGZF=  196
   ions per type =              12  18
   NGX,Y,Z   is equivalent  to a cutoff of  12.46, 12.46, 12.42 a.u.
   NGXF,Y,Z  is equivalent  to a cutoff of  24.91, 24.91, 24.84 a.u.

 SYSTEM =  ni3al                                   
 POSCAR =  Al12 O18                                

 Startparameter for this run:
   NWRITE =      2    write-flag & timer
   PREC   = accura    normal or accurate (medium, high low for compatibility)
   ISTART =      0    job   : 0-new  1-cont  2-samecut
   ICHARG =      2    charge: 1-file 2-atom 10-const
   ISPIN  =      1    spin polarized calculation?
   LNONCOLLINEAR =      F non collinear calculations
   LSORBIT =      F    spin-orbit coupling
   INIWAV =      1    electr: 0-lowe 1-rand  2-diag
   LASPH  =      F    aspherical Exc in radial PAW
 Electronic Relaxation 1
   ENCUT  =  530.0 eV  38.95 Ry    6.24 a.u.   9.02  9.02 24.62*2*pi/ulx,y,z
   ENINI  =  530.0     initial cutoff
   ENAUG  =  605.4 eV  augmentation charge cutoff
   NELM   =    150;   NELMIN=  2; NELMDL= -5     # of ELM steps 
   EDIFF  = 0.1E-05   stopping-criterion for ELM
   LREAL  =      T    real-space projection
   NLSPLINE    = F    spline interpolate recip. space projectors
   LCOMPAT=      F    compatible to vasp.4.4
   GGA_COMPAT  = T    GGA compatible to vasp.4.4-vasp.4.6
   LMAXPAW     = -100 max onsite density
   LMAXMIX     =    4 max onsite mixed and CHGCAR
   VOSKOWN=      0    Vosko Wilk Nusair interpolation
   ROPT   =   -0.00025  -0.00025
 Ionic relaxation
   EDIFFG = -.1E-01   stopping-criterion for IOM
   NSW    =    300    number of steps for IOM
   NBLOCK =      1;   KBLOCK =    300    inner block; outer block 
   IBRION =      2    ionic relax: 0-MD 1-quasi-New 2-CG
   NFREE  =      1    steps in history (QN), initial steepest desc. (CG)
   ISIF   =      3    stress and relaxation
   IWAVPR =     11    prediction:  0-non 1-charg 2-wave 3-comb
   ISYM   =      2    0-nonsym 1-usesym 2-fastsym
   LCORR  =      T    Harris-Foulkes like correction to forces

   POTIM  = 0.5000    time-step for ionic-motion
   TEIN   =    0.0    initial temperature
   TEBEG  =    0.0;   TEEND  =   0.0 temperature during run
   SMASS  =  -3.00    Nose mass-parameter (am)
   estimated Nose-frequenzy (Omega)   =  0.10E-29 period in steps = 0.13E+47 mass=  -0.528E-27a.u.
   SCALEE = 1.0000    scale energy and forces
   NPACO  =    256;   APACO  = 10.0  distance and # of slots for P.C.
   PSTRESS=    0.0 pullay stress

  Mass of Ions in am
   POMASS =  26.98 16.00
  Ionic Valenz
   ZVAL   =   3.00  6.00
  Atomic Wigner-Seitz radii
   RWIGS  =  -1.00 -1.00
  virtual crystal weights 
   VCA    =   1.00  1.00
   NELECT =     144.0000    total number of electrons
   NUPDOWN=      -1.0000    fix difference up-down

 DOS related values:
   EMIN   =  10.00;   EMAX   =-10.00  energy-range for DOS
   EFERMI =   0.00
   ISMEAR =     0;   SIGMA  =   0.10  broadening in eV -4-tet -1-fermi 0-gaus

 Electronic relaxation 2 (details)
   IALGO  =     68    algorithm
   LDIAG  =      T    sub-space diagonalisation (order eigenvalues)
   LSUBROT=      F    optimize rotation matrix (better conditioning)
   TURBO    =      0    0=normal 1=particle mesh
   IRESTART =      0    0=no restart 2=restart with 2 vectors
   NREBOOT  =      0    no. of reboots
   NMIN     =      0    reboot dimension
   EREF     =   0.00    reference energy to select bands
   IMIX   =      4    mixing-type and parameters
     AMIX     =   0.40;   BMIX     =  1.00
     AMIX_MAG =   1.60;   BMIX_MAG =  1.00
     AMIN     =   0.01
     WC   =   100.;   INIMIX=   1;  MIXPRE=   1;  MAXMIX= -45

 Intra band minimization:
   WEIMIN = 0.0010     energy-eigenvalue tresh-hold
   EBREAK =  0.28E-08  absolut break condition
   DEPER  =   0.30     relativ break condition  

   TIME   =   0.40     timestep for ELM

  volume/ion in A,a.u.               =       8.74        58.99
  Fermi-wavevector in a.u.,A,eV,Ry     =   1.340556  2.533283 24.450898  1.797090
  Thomas-Fermi vector in A             =   2.468859
 
 Write flags
   LWAVE        =      F    write WAVECAR
   LDOWNSAMPLE  =      F    k-point downsampling of WAVECAR
   LCHARG       =      F    write CHGCAR
   LVTOT        =      F    write LOCPOT, total local potential
   LVHAR        =      F    write LOCPOT, Hartree potential only
   LELF         =      F    write electronic localiz. function (ELF)
   LORBIT       =      0    0 simple, 1 ext, 2 COOP (PROOUT), +10 PAW based schemes


 Dipole corrections
   LMONO  =      F    monopole corrections only (constant potential shift)
   LDIPOL =      F    correct potential (dipole corrections)
   IDIPOL =      0    1-x, 2-y, 3-z, 4-all directions 
   EPSILON=  1.0000000 bulk dielectric constant

 Exchange correlation treatment:
   GGA     =    --    GGA type
   LEXCH   =     8    internal setting for exchange type
   LIBXC   =     F    Libxc                    
   VOSKOWN =     0    Vosko Wilk Nusair interpolation
   LHFCALC =     F    Hartree Fock is set to
   LHFONE  =     F    Hartree Fock one center treatment
   AEXX    =    0.0000 exact exchange contribution

 Linear response parameters
   LEPSILON=     F    determine dielectric tensor
   LRPA    =     F    only Hartree local field effects (RPA)
   LNABLA  =     F    use nabla operator in PAW spheres
   LVEL    =     F    velocity operator in full k-point grid
   CSHIFT  =0.1000    complex shift for real part using Kramers Kronig
   OMEGAMAX=  -1.0    maximum frequency
   DEG_THRESHOLD= 0.2000000E-02 threshold for treating states as degnerate
   RTIME   =   -0.100 relaxation time in fs
  (WPLASMAI=    0.000 imaginary part of plasma frequency in eV, 0.658/RTIME)
   DFIELD  = 0.0000000 0.0000000 0.0000000 field for delta impulse in time
 
  Optional k-point grid parameters
   LKPOINTS_OPT  =     F    use optional k-point grid
   KPOINTS_OPT_MODE=     1    mode for optional k-point grid
 
 Orbital magnetization related:
   ORBITALMAG=     F  switch on orbital magnetization
   LCHIMAG   =     F  perturbation theory with respect to B field
   DQ        =  0.001000  dq finite difference perturbation B field
   LLRAUG    =     F  two centre corrections for induced B field



--------------------------------------------------------------------------------------------------------


 conjugate gradient relaxation of ions
 charge density and potential will be updated during run
 non-spin polarized calculation
 RMM-DIIS sequential band-by-band and
  variant of blocked Davidson during initial phase
 perform sub-space diagonalisation
    before iterative eigenvector-optimisation
 modified Broyden-mixing scheme, WC =      100.0
 initial mixing is a Kerker type mixing with AMIX =  0.4000 and BMIX =      1.0000
 Hartree-type preconditioning will be used
 using additional bands           16
 real space projection scheme for non local part
 use partial core corrections
 calculate Harris-corrections to forces 
   (improved forces if not selfconsistent)
 use gradient corrections 
 use of overlap-Matrix (Vanderbilt PP)
 Gauss-broadening in eV      SIGMA  =   0.10


--------------------------------------------------------------------------------------------------------


  energy-cutoff  :      530.00
  volume of cell :      262.26
      direct lattice vectors                 reciprocal lattice vectors
     2.402513610 -4.161275639  0.000000000     0.208115366 -0.120155463  0.000000000
     2.402513610  4.161275639  0.000000000     0.208115366  0.120155463  0.000000000
     0.000000000  0.000000000 13.116253248     0.000000000  0.000000000  0.076241285

  length of vectors
     4.805027221  4.805027221 13.116253248     0.240310925  0.240310925  0.076241285


 
 k-points in units of 2pi/SCALE and weight: K-Spacing Value to Generate K-Mesh: 0.02
   0.00000000  0.00000000  0.00000000       0.001
   0.01387436 -0.00801036  0.00000000       0.007
   0.02774872 -0.01602073  0.00000000       0.007
   0.04162307 -0.02403109  0.00000000       0.007
   0.05549743 -0.03204146  0.00000000       0.007
   0.06937179 -0.04005182  0.00000000       0.007
   0.08324615 -0.04806219  0.00000000       0.007
   0.09712050 -0.05607255  0.00000000       0.007
   0.02774872 -0.00000000  0.00000000       0.007
   0.04162307 -0.00801036  0.00000000       0.013
   0.05549743 -0.01602073  0.00000000       0.013
   0.06937179 -0.02403109  0.00000000       0.013
   0.08324615 -0.03204146  0.00000000       0.013
   0.09712050 -0.04005182  0.00000000       0.013
   0.11099486 -0.04806219  0.00000000       0.007
   0.05549743  0.00000000  0.00000000       0.007
   0.06937179 -0.00801036  0.00000000       0.013
   0.08324615 -0.01602073  0.00000000       0.013
   0.09712050 -0.02403109  0.00000000       0.013
   0.11099486 -0.03204146  0.00000000       0.013
   0.08324615  0.00000000  0.00000000       0.007
   0.09712050 -0.00801036  0.00000000       0.013
   0.11099486 -0.01602073  0.00000000       0.013
   0.12486922 -0.02403109  0.00000000       0.007
   0.11099486  0.00000000  0.00000000       0.007
   0.12486922 -0.00801036  0.00000000       0.013
   0.13874358  0.00000000  0.00000000       0.002
   0.00000000  0.00000000  0.01906032       0.002
   0.01387436 -0.00801036  0.01906032       0.007
   0.01387436  0.00801036  0.01906032       0.007
   0.02774872 -0.01602073  0.01906032       0.007
   0.02774872  0.01602073  0.01906032       0.007
   0.04162307 -0.02403109  0.01906032       0.007
   0.04162307  0.02403109  0.01906032       0.007
   0.05549743 -0.03204146  0.01906032       0.007
   0.05549743  0.03204146  0.01906032       0.007
   0.06937179 -0.04005182  0.01906032       0.007
   0.06937179  0.04005182  0.01906032       0.007
   0.08324615 -0.04806219  0.01906032       0.007
   0.08324615  0.04806219  0.01906032       0.007
   0.09712050 -0.05607255  0.01906032       0.007
   0.09712050  0.05607255  0.01906032       0.007
   0.02774872 -0.00000000  0.01906032       0.013
   0.04162307 -0.00801036  0.01906032       0.013
   0.02774872  0.03204146  0.01906032       0.013
   0.05549743 -0.01602073  0.01906032       0.013
   0.04162307  0.04005182  0.01906032       0.013
   0.06937179 -0.02403109  0.01906032       0.013
   0.05549743  0.04806219  0.01906032       0.013
   0.08324615 -0.03204146  0.01906032       0.013
   0.06937179  0.05607255  0.01906032       0.013
   0.09712050 -0.04005182  0.01906032       0.013
   0.08324615  0.06408291  0.01906032       0.013
   0.11099486 -0.04806219  0.01906032       0.013
   0.05549743  0.00000000  0.01906032       0.013
   0.06937179 -0.00801036  0.01906032       0.013
   0.04162307  0.05607255  0.01906032       0.013
   0.08324615 -0.01602073  0.01906032       0.013
   0.05549743  0.06408291  0.01906032       0.013
   0.09712050 -0.02403109  0.01906032       0.013
   0.06937179  0.07209328  0.01906032       0.013
   0.11099486 -0.03204146  0.01906032       0.013
  -0.12486922 -0.04005182  0.01906032       0.013
   0.08324615  0.00000000  0.01906032       0.013
   0.09712050 -0.00801036  0.01906032       0.013
   0.05549743  0.08010364  0.01906032       0.013
   0.11099486 -0.01602073  0.01906032       0.013
  -0.13874358 -0.03204146  0.01906032       0.013
   0.12486922 -0.02403109  0.01906032       0.013
   0.11099486  0.00000000  0.01906032       0.013
   0.12486922 -0.00801036  0.01906032       0.013
  -0.13874358 -0.01602073  0.01906032       0.013
   0.13874358  0.00000000  0.01906032       0.004
   0.00000000  0.00000000  0.03812064       0.001
   0.01387436 -0.00801036  0.03812064       0.007
   0.02774872 -0.01602073  0.03812064       0.007
   0.04162307 -0.02403109  0.03812064       0.007
   0.05549743 -0.03204146  0.03812064       0.007
   0.06937179 -0.04005182  0.03812064       0.007
   0.08324615 -0.04806219  0.03812064       0.007
   0.09712050 -0.05607255  0.03812064       0.007
   0.02774872 -0.00000000  0.03812064       0.007
   0.04162307 -0.00801036  0.03812064       0.013
   0.05549743 -0.01602073  0.03812064       0.013
   0.06937179 -0.02403109  0.03812064       0.013
   0.08324615 -0.03204146  0.03812064       0.013
   0.09712050 -0.04005182  0.03812064       0.013
   0.11099486 -0.04806219  0.03812064       0.007
   0.05549743  0.00000000  0.03812064       0.007
   0.06937179 -0.00801036  0.03812064       0.013
   0.08324615 -0.01602073  0.03812064       0.013
   0.09712050 -0.02403109  0.03812064       0.013
   0.11099486 -0.03204146  0.03812064       0.013
   0.08324615  0.00000000  0.03812064       0.007
   0.09712050 -0.00801036  0.03812064       0.013
   0.11099486 -0.01602073  0.03812064       0.013
   0.12486922 -0.02403109  0.03812064       0.007
   0.11099486  0.00000000  0.03812064       0.007
   0.12486922 -0.00801036  0.03812064       0.013
   0.13874358  0.00000000  0.03812064       0.002
 
 k-points in reciprocal lattice and weights: K-Spacing Value to Generate K-Mesh: 0.02
   0.00000000  0.00000000  0.00000000       0.001
   0.06666667  0.00000000  0.00000000       0.007
   0.13333333  0.00000000  0.00000000       0.007
   0.20000000  0.00000000  0.00000000       0.007
   0.26666667  0.00000000  0.00000000       0.007
   0.33333333  0.00000000  0.00000000       0.007
   0.40000000 -0.00000000  0.00000000       0.007
   0.46666667  0.00000000  0.00000000       0.007
   0.06666667  0.06666667  0.00000000       0.007
   0.13333333  0.06666667  0.00000000       0.013
   0.20000000  0.06666667  0.00000000       0.013
   0.26666667  0.06666667  0.00000000       0.013
   0.33333333  0.06666667  0.00000000       0.013
   0.40000000  0.06666667  0.00000000       0.013
   0.46666667  0.06666667  0.00000000       0.007
   0.13333333  0.13333333  0.00000000       0.007
   0.20000000  0.13333333  0.00000000       0.013
   0.26666667  0.13333333  0.00000000       0.013
   0.33333333  0.13333333  0.00000000       0.013
   0.40000000  0.13333333  0.00000000       0.013
   0.20000000  0.20000000  0.00000000       0.007
   0.26666667  0.20000000  0.00000000       0.013
   0.33333333  0.20000000  0.00000000       0.013
   0.40000000  0.20000000  0.00000000       0.007
   0.26666667  0.26666667  0.00000000       0.007
   0.33333333  0.26666667  0.00000000       0.013
   0.33333333  0.33333333  0.00000000       0.002
   0.00000000  0.00000000  0.25000000       0.002
   0.06666667  0.00000000  0.25000000       0.007
   0.00000000  0.06666667  0.25000000       0.007
   0.13333333  0.00000000  0.25000000       0.007
   0.00000000  0.13333333  0.25000000       0.007
   0.20000000  0.00000000  0.25000000       0.007
   0.00000000  0.20000000  0.25000000       0.007
   0.26666667  0.00000000  0.25000000       0.007
   0.00000000  0.26666667  0.25000000       0.007
   0.33333333  0.00000000  0.25000000       0.007
   0.00000000  0.33333333  0.25000000       0.007
   0.40000000 -0.00000000  0.25000000       0.007
  -0.00000000  0.40000000  0.25000000       0.007
   0.46666667  0.00000000  0.25000000       0.007
   0.00000000  0.46666667  0.25000000       0.007
   0.06666667  0.06666667  0.25000000       0.013
   0.13333333  0.06666667  0.25000000       0.013
  -0.06666667  0.20000000  0.25000000       0.013
   0.20000000  0.06666667  0.25000000       0.013
  -0.06666667  0.26666667  0.25000000       0.013
   0.26666667  0.06666667  0.25000000       0.013
  -0.06666667  0.33333333  0.25000000       0.013
   0.33333333  0.06666667  0.25000000       0.013
  -0.06666667  0.40000000  0.25000000       0.013
   0.40000000  0.06666667  0.25000000       0.013
  -0.06666667  0.46666667  0.25000000       0.013
   0.46666667  0.06666667  0.25000000       0.013
   0.13333333  0.13333333  0.25000000       0.013
   0.20000000  0.13333333  0.25000000       0.013
  -0.13333333  0.33333333  0.25000000       0.013
   0.26666667  0.13333333  0.25000000       0.013
  -0.13333333  0.40000000  0.25000000       0.013
   0.33333333  0.13333333  0.25000000       0.013
  -0.13333333  0.46666667  0.25000000       0.013
   0.40000000  0.13333333  0.25000000       0.013
  -0.13333333 -0.46666667  0.25000000       0.013
   0.20000000  0.20000000  0.25000000       0.013
   0.26666667  0.20000000  0.25000000       0.013
  -0.20000000  0.46666667  0.25000000       0.013
   0.33333333  0.20000000  0.25000000       0.013
  -0.20000000 -0.46666667  0.25000000       0.013
   0.40000000  0.20000000  0.25000000       0.013
   0.26666667  0.26666667  0.25000000       0.013
   0.33333333  0.26666667  0.25000000       0.013
  -0.26666667 -0.40000000  0.25000000       0.013
   0.33333333  0.33333333  0.25000000       0.004
   0.00000000  0.00000000  0.50000000       0.001
   0.06666667  0.00000000  0.50000000       0.007
   0.13333333  0.00000000  0.50000000       0.007
   0.20000000  0.00000000  0.50000000       0.007
   0.26666667  0.00000000  0.50000000       0.007
   0.33333333  0.00000000  0.50000000       0.007
   0.40000000 -0.00000000  0.50000000       0.007
   0.46666667  0.00000000  0.50000000       0.007
   0.06666667  0.06666667  0.50000000       0.007
   0.13333333  0.06666667  0.50000000       0.013
   0.20000000  0.06666667  0.50000000       0.013
   0.26666667  0.06666667  0.50000000       0.013
   0.33333333  0.06666667  0.50000000       0.013
   0.40000000  0.06666667  0.50000000       0.013
   0.46666667  0.06666667  0.50000000       0.007
   0.13333333  0.13333333  0.50000000       0.007
   0.20000000  0.13333333  0.50000000       0.013
   0.26666667  0.13333333  0.50000000       0.013
   0.33333333  0.13333333  0.50000000       0.013
   0.40000000  0.13333333  0.50000000       0.013
   0.20000000  0.20000000  0.50000000       0.007
   0.26666667  0.20000000  0.50000000       0.013
   0.33333333  0.20000000  0.50000000       0.013
   0.40000000  0.20000000  0.50000000       0.007
   0.26666667  0.26666667  0.50000000       0.007
   0.33333333  0.26666667  0.50000000       0.013
   0.33333333  0.33333333  0.50000000       0.002
 
 position of ions in fractional coordinates (direct lattice) 
   0.33333333  0.66666667  0.81457067
   0.66666667  0.33333333  0.68542933
   0.00000000  0.00000000  0.64790400
   0.33333333  0.66666667  0.51876267
   0.00000000  0.00000000  0.14790400
   0.33333333  0.66666667  0.01876267
   0.66666667  0.33333333  0.98123733
   0.00000000  0.00000000  0.85209600
   0.66666667  0.33333333  0.48123733
   0.00000000  0.00000000  0.35209600
   0.33333333  0.66666667  0.31457067
   0.66666667  0.33333333  0.18542933
   0.36052117  0.33333333  0.58333333
   0.69385450  0.69385450  0.75000000
   0.97281217  0.63947883  0.58333333
   0.66666667  0.02718783  0.58333333
   0.00000000  0.30614550  0.75000000
   0.30614550  0.00000000  0.75000000
   0.02718783  0.66666667  0.91666667
   0.36052117  0.02718783  0.08333333
   0.63947883  0.97281217  0.91666667
   0.33333333  0.36052117  0.91666667
   0.66666667  0.63947883  0.08333333
   0.97281217  0.33333333  0.08333333
   0.69385450  0.00000000  0.25000000
   0.02718783  0.36052117  0.41666667
   0.30614550  0.30614550  0.25000000
   0.00000000  0.69385450  0.25000000
   0.33333333  0.97281217  0.41666667
   0.63947883  0.66666667  0.41666667
 
 position of ions in cartesian coordinates  (Angst):
   2.40251361  1.38709188 10.68411515
   2.40251361 -1.38709188  8.99026472
   0.00000000  0.00000000  8.49807294
   2.40251361  1.38709188  6.80422251
   0.00000000  0.00000000  1.93994632
   2.40251361  1.38709188  0.24609589
   2.40251361 -1.38709188 12.87015736
   0.00000000  0.00000000 11.17630693
   2.40251361 -1.38709188  6.31203074
   0.00000000  0.00000000  4.61818030
   2.40251361  1.38709188  4.12598853
   2.40251361 -1.38709188  2.43213810
   1.66699488 -0.11313607  7.65114773
   3.33398976 -0.00000000  9.83718994
   3.87355107 -1.38709188  7.65114773
   1.66699488 -2.66104769  7.65114773
   0.73551873  1.27395581  9.83718994
   0.73551873 -1.27395581  9.83718994
   1.66699488  2.66104769 12.02323214
   0.93147615 -1.38709188  1.09302110
   3.87355107  1.38709188 12.02323214
   1.66699488  0.11313607 12.02323214
   3.13803234 -0.11313607  1.09302110
   3.13803234 -2.66104769  1.09302110
   1.66699488 -2.88731983  3.27906331
   0.93147615  1.38709188  5.46510552
   1.47103746  0.00000000  3.27906331
   1.66699488  2.88731983  3.27906331
   3.13803234  2.66104769  5.46510552
   3.13803234  0.11313607  5.46510552
 


--------------------------------------------------------------------------------------------------------


 k-point   1 :   0.0000 0.0000 0.0000  plane waves:    7207
 k-point   2 :   0.0667 0.0000 0.0000  plane waves:    7227
 k-point   3 :   0.1333 0.0000 0.0000  plane waves:    7249
 k-point   4 :   0.2000 0.0000 0.0000  plane waves:    7246
 k-point   5 :   0.2667 0.0000 0.0000  plane waves:    7240
 k-point   6 :   0.3333 0.0000 0.0000  plane waves:    7258
 k-point   7 :   0.4000-0.0000 0.0000  plane waves:    7274
 k-point   8 :   0.4667 0.0000 0.0000  plane waves:    7282
 k-point   9 :   0.0667 0.0667 0.0000  plane waves:    7229
 k-point  10 :   0.1333 0.0667 0.0000  plane waves:    7250
 k-point  11 :   0.2000 0.0667 0.0000  plane waves:    7256
 k-point  12 :   0.2667 0.0667 0.0000  plane waves:    7261
 k-point  13 :   0.3333 0.0667 0.0000  plane waves:    7272
 k-point  14 :   0.4000 0.0667 0.0000  plane waves:    7281
 k-point  15 :   0.4667 0.0667 0.0000  plane waves:    7255
 k-point  16 :   0.1333 0.1333 0.0000  plane waves:    7245
 k-point  17 :   0.2000 0.1333 0.0000  plane waves:    7260
 k-point  18 :   0.2667 0.1333 0.0000  plane waves:    7265
 k-point  19 :   0.3333 0.1333 0.0000  plane waves:    7281
 k-point  20 :   0.4000 0.1333 0.0000  plane waves:    7291
 k-point  21 :   0.2000 0.2000 0.0000  plane waves:    7269
 k-point  22 :   0.2667 0.2000 0.0000  plane waves:    7273
 k-point  23 :   0.3333 0.2000 0.0000  plane waves:    7289
 k-point  24 :   0.4000 0.2000 0.0000  plane waves:    7297
 k-point  25 :   0.2667 0.2667 0.0000  plane waves:    7289
 k-point  26 :   0.3333 0.2667 0.0000  plane waves:    7297
 k-point  27 :   0.3333 0.3333 0.0000  plane waves:    7299
 k-point  28 :   0.0000 0.0000 0.2500  plane waves:    7237
 k-point  29 :   0.0667 0.0000 0.2500  plane waves:    7224
 k-point  30 :   0.0000 0.0667 0.2500  plane waves:    7224
 k-point  31 :   0.1333 0.0000 0.2500  plane waves:    7218
 k-point  32 :   0.0000 0.1333 0.2500  plane waves:    7218
 k-point  33 :   0.2000 0.0000 0.2500  plane waves:    7259
 k-point  34 :   0.0000 0.2000 0.2500  plane waves:    7259
 k-point  35 :   0.2667 0.0000 0.2500  plane waves:    7252
 k-point  36 :   0.0000 0.2667 0.2500  plane waves:    7252
 k-point  37 :   0.3333 0.0000 0.2500  plane waves:    7263
 k-point  38 :   0.0000 0.3333 0.2500  plane waves:    7263
 k-point  39 :   0.4000-0.0000 0.2500  plane waves:    7261
 k-point  40 :  -0.0000 0.4000 0.2500  plane waves:    7261
 k-point  41 :   0.4667 0.0000 0.2500  plane waves:    7264
 k-point  42 :   0.0000 0.4667 0.2500  plane waves:    7264
 k-point  43 :   0.0667 0.0667 0.2500  plane waves:    7225
 k-point  44 :   0.1333 0.0667 0.2500  plane waves:    7247
 k-point  45 :  -0.0667 0.2000 0.2500  plane waves:    7247
 k-point  46 :   0.2000 0.0667 0.2500  plane waves:    7263
 k-point  47 :  -0.0667 0.2667 0.2500  plane waves:    7263
 k-point  48 :   0.2667 0.0667 0.2500  plane waves:    7262
 k-point  49 :  -0.0667 0.3333 0.2500  plane waves:    7262
 k-point  50 :   0.3333 0.0667 0.2500  plane waves:    7259
 k-point  51 :  -0.0667 0.4000 0.2500  plane waves:    7259
 k-point  52 :   0.4000 0.0667 0.2500  plane waves:    7270
 k-point  53 :  -0.0667 0.4667 0.2500  plane waves:    7270
 k-point  54 :   0.4667 0.0667 0.2500  plane waves:    7266
 k-point  55 :   0.1333 0.1333 0.2500  plane waves:    7265
 k-point  56 :   0.2000 0.1333 0.2500  plane waves:    7268
 k-point  57 :  -0.1333 0.3333 0.2500  plane waves:    7268
 k-point  58 :   0.2667 0.1333 0.2500  plane waves:    7266
 k-point  59 :  -0.1333 0.4000 0.2500  plane waves:    7266
 k-point  60 :   0.3333 0.1333 0.2500  plane waves:    7271
 k-point  61 :  -0.1333 0.4667 0.2500  plane waves:    7271
 k-point  62 :   0.4000 0.1333 0.2500  plane waves:    7287
 k-point  63 :  -0.1333-0.4667 0.2500  plane waves:    7287
 k-point  64 :   0.2000 0.2000 0.2500  plane waves:    7261
 k-point  65 :   0.2667 0.2000 0.2500  plane waves:    7277
 k-point  66 :  -0.2000 0.4667 0.2500  plane waves:    7277
 k-point  67 :   0.3333 0.2000 0.2500  plane waves:    7293
 k-point  68 :  -0.2000-0.4667 0.2500  plane waves:    7293
 k-point  69 :   0.4000 0.2000 0.2500  plane waves:    7304
 k-point  70 :   0.2667 0.2667 0.2500  plane waves:    7292
 k-point  71 :   0.3333 0.2667 0.2500  plane waves:    7288
 k-point  72 :  -0.2667-0.4000 0.2500  plane waves:    7288
 k-point  73 :   0.3333 0.3333 0.2500  plane waves:    7311
 k-point  74 :   0.0000 0.0000 0.5000  plane waves:    7142
 k-point  75 :   0.0667 0.0000 0.5000  plane waves:    7224
 k-point  76 :   0.1333 0.0000 0.5000  plane waves:    7220
 k-point  77 :   0.2000 0.0000 0.5000  plane waves:    7244
 k-point  78 :   0.2667 0.0000 0.5000  plane waves:    7248
 k-point  79 :   0.3333 0.0000 0.5000  plane waves:    7230
 k-point  80 :   0.4000-0.0000 0.5000  plane waves:    7240
 k-point  81 :   0.4667 0.0000 0.5000  plane waves:    7268
 k-point  82 :   0.0667 0.0667 0.5000  plane waves:    7230
 k-point  83 :   0.1333 0.0667 0.5000  plane waves:    7258
 k-point  84 :   0.2000 0.0667 0.5000  plane waves:    7242
 k-point  85 :   0.2667 0.0667 0.5000  plane waves:    7260
 k-point  86 :   0.3333 0.0667 0.5000  plane waves:    7256
 k-point  87 :   0.4000 0.0667 0.5000  plane waves:    7264
 k-point  88 :   0.4667 0.0667 0.5000  plane waves:    7266
 k-point  89 :   0.1333 0.1333 0.5000  plane waves:    7250
 k-point  90 :   0.2000 0.1333 0.5000  plane waves:    7258
 k-point  91 :   0.2667 0.1333 0.5000  plane waves:    7274
 k-point  92 :   0.3333 0.1333 0.5000  plane waves:    7282
 k-point  93 :   0.4000 0.1333 0.5000  plane waves:    7284
 k-point  94 :   0.2000 0.2000 0.5000  plane waves:    7270
 k-point  95 :   0.2667 0.2000 0.5000  plane waves:    7276
 k-point  96 :   0.3333 0.2000 0.5000  plane waves:    7282
 k-point  97 :   0.4000 0.2000 0.5000  plane waves:    7296
 k-point  98 :   0.2667 0.2667 0.5000  plane waves:    7284
 k-point  99 :   0.3333 0.2667 0.5000  plane waves:    7306
 k-point 100 :   0.3333 0.3333 0.5000  plane waves:    7314

 maximum and minimum number of plane-waves per node :      7314     7142

 maximum number of plane-waves:      7314
 maximum index in each direction: 
   IXMAX=    9   IYMAX=    9   IZMAX=   24
   IXMIN=   -9   IYMIN=   -9   IZMIN=  -25


 serial   3D FFT for wavefunctions
 parallel 3D FFT for charge:
    minimum data exchange during FFTs selected (reduces bandwidth)


 total amount of memory used by VASP MPI-rank0   401592. kBytes
=======================================================================

   base      :      30000. kBytes
   nonlr-proj:       8273. kBytes
   fftplans  :      34912. kBytes
   grid      :      62415. kBytes
   one-center:         92. kBytes
   wavefun   :     265900. kBytes
 
     INWAV:  cpu time      0.0004: real time      0.0000
 Broyden mixing: mesh for mixing (old mesh)
   NGX = 19   NGY = 19   NGZ = 49
  (NGX  = 72   NGY  = 72   NGZ  =196)
  gives a total of  17689 points

 initial charge density was supplied:
 charge density of overlapping atoms calculated
 number of electron     144.0000000 magnetization 
 keeping initial charge density in first step


--------------------------------------------------------------------------------------------------------


 Maximum index for non-local projection operator         3402
 Maximum index for augmentation-charges        18253 (set IRDMAX)


--------------------------------------------------------------------------------------------------------


 First call to EWALD:  gamma=   0.277
 Maximum number of real-space cells 4x 4x 2
 Maximum number of reciprocal cells 2x 2x 5

    FEWALD:  cpu time      0.0057: real time      0.0029


--------------------------------------- Iteration      1(   1)  ---------------------------------------


    POTLOK:  cpu time      1.4125: real time      0.2051
    SETDIJ:  cpu time      0.2792: real time      0.0399
     EDDAV:  cpu time     45.3299: real time      6.6283
       DOS:  cpu time      0.0157: real time      0.0080
    --------------------------------------------
      LOOP:  cpu time     47.0376: real time      6.8814

 eigenvalue-minimisations  : 17672
 total energy-change (2. order) : 0.8199109E+03  (-0.7793876E+04)
 number of electron     144.0000000 magnetization 
 augmentation part      144.0000000 magnetization 

 Free energy of the ion-electron system (eV)
  ---------------------------------------------------
  alpha Z        PSCENC =       221.47574156
  Ewald energy   TEWEN  =     -7125.17054963
  -Hartree energ DENC   =     -1923.49405505
  -exchange      EXHF   =         0.00000000
  -V(xc)+E(xc)   XCENC  =       199.14116306
  PAW double counting   =      4854.62230609    -4504.45338492
  entropy T*S    EENTRO =        -0.01906534
  eigenvalues    EBANDS =       672.89359655
  atomic energy  EATOM  =      8424.91513549
  Solvation  Ediel_sol  =         0.00000000
  ---------------------------------------------------
  free energy    TOTEN  =       819.91088781 eV

  energy without entropy =      819.92995315  energy(sigma->0) =      819.92042048


--------------------------------------------------------------------------------------------------------




--------------------------------------- Iteration      1(   2)  ---------------------------------------


     EDDAV:  cpu time     49.9004: real time      7.3636
       DOS:  cpu time      0.0081: real time      0.0040
    --------------------------------------------
      LOOP:  cpu time     49.9084: real time      7.3676

 eigenvalue-minimisations  : 21688
 total energy-change (2. order) :-0.1017032E+04  (-0.9926230E+03)
 number of electron     144.0000000 magnetization 
 augmentation part      144.0000000 magnetization 

 Free energy of the ion-electron system (eV)
  ---------------------------------------------------
  alpha Z        PSCENC =       221.47574156
  Ewald energy   TEWEN  =     -7125.17054963
  -Hartree energ DENC   =     -1923.49405505
  -exchange      EXHF   =         0.00000000
  -V(xc)+E(xc)   XCENC  =       199.14116306
  PAW double counting   =      4854.62230609    -4504.45338492
  entropy T*S    EENTRO =        -0.00000000
  eigenvalues    EBANDS =      -344.15755750
  atomic energy  EATOM  =      8424.91513549
  Solvation  Ediel_sol  =         0.00000000
  ---------------------------------------------------
  free energy    TOTEN  =      -197.12120089 eV

  energy without entropy =     -197.12120089  energy(sigma->0) =     -197.12120089


--------------------------------------------------------------------------------------------------------




--------------------------------------- Iteration      1(   3)  ---------------------------------------


     EDDAV:  cpu time     48.4818: real time      7.2357
       DOS:  cpu time      0.0081: real time      0.0040
    --------------------------------------------
      LOOP:  cpu time     48.4899: real time      7.2398

 eigenvalue-minimisations  : 20776
 total energy-change (2. order) :-0.5067081E+02  (-0.5048027E+02)
 number of electron     144.0000000 magnetization 
 augmentation part      144.0000000 magnetization 

 Free energy of the ion-electron system (eV)
  ---------------------------------------------------
  alpha Z        PSCENC =       221.47574156
  Ewald energy   TEWEN  =     -7125.17054963
  -Hartree energ DENC   =     -1923.49405505
  -exchange      EXHF   =         0.00000000
  -V(xc)+E(xc)   XCENC  =       199.14116306
  PAW double counting   =      4854.62230609    -4504.45338492
  entropy T*S    EENTRO =        -0.00000000
  eigenvalues    EBANDS =      -394.82836715
  atomic energy  EATOM  =      8424.91513549
  Solvation  Ediel_sol  =         0.00000000
  ---------------------------------------------------
  free energy    TOTEN  =      -247.79201054 eV

  energy without entropy =     -247.79201054  energy(sigma->0) =     -247.79201054


--------------------------------------------------------------------------------------------------------




--------------------------------------- Iteration      1(   4)  ---------------------------------------


     EDDAV:  cpu time     48.7442: real time      7.3657
       DOS:  cpu time      0.0084: real time      0.0042
    --------------------------------------------
      LOOP:  cpu time     48.7526: real time      7.3699

 eigenvalue-minimisations  : 20720
 total energy-change (2. order) :-0.5771225E+00  (-0.5756027E+00)
 number of electron     144.0000000 magnetization 
 augmentation part      144.0000000 magnetization 

 Free energy of the ion-electron system (eV)
  ---------------------------------------------------
  alpha Z        PSCENC =       221.47574156
  Ewald energy   TEWEN  =     -7125.17054963
  -Hartree energ DENC   =     -1923.49405505
  -exchange      EXHF   =         0.00000000
  -V(xc)+E(xc)   XCENC  =       199.14116306
  PAW double counting   =      4854.62230609    -4504.45338492
  entropy T*S    EENTRO =        -0.00000000
  eigenvalues    EBANDS =      -395.40548963
  atomic energy  EATOM  =      8424.91513549
  Solvation  Ediel_sol  =         0.00000000
  ---------------------------------------------------
  free energy    TOTEN  =      -248.36913303 eV

  energy without entropy =     -248.36913303  energy(sigma->0) =     -248.36913303


--------------------------------------------------------------------------------------------------------




--------------------------------------- Iteration      1(   5)  ---------------------------------------


     EDDAV:  cpu time     49.6983: real time      7.2993
       DOS:  cpu time      0.0280: real time      0.0040
    CHARGE:  cpu time      0.9041: real time      0.2918
    MIXING:  cpu time      0.0911: real time      0.0131
    --------------------------------------------
      LOOP:  cpu time     50.7222: real time      7.6082

 eigenvalue-minimisations  : 20552
 total energy-change (2. order) :-0.9923886E-02  (-0.9912657E-02)
 number of electron     144.0000006 magnetization 
 augmentation part       14.0930857 magnetization 

 Broyden mixing:
  rms(total) = 0.29360E+01    rms(broyden)= 0.29355E+01
  rms(prec ) = 0.35220E+01
  weight for this iteration     100.00

 Free energy of the ion-electron system (eV)
  ---------------------------------------------------
  alpha Z        PSCENC =       221.47574156
  Ewald energy   TEWEN  =     -7125.17054963
  -Hartree energ DENC   =     -1923.49405505
  -exchange      EXHF   =         0.00000000
  -V(xc)+E(xc)   XCENC  =       199.14116306
  PAW double counting   =      4854.62230609    -4504.45338492
  entropy T*S    EENTRO =        -0.00000000
  eigenvalues    EBANDS =      -395.41541351
  atomic energy  EATOM  =      8424.91513549
  Solvation  Ediel_sol  =         0.00000000
  ---------------------------------------------------
  free energy    TOTEN  =      -248.37905691 eV

  energy without entropy =     -248.37905691  energy(sigma->0) =     -248.37905691


--------------------------------------------------------------------------------------------------------




--------------------------------------- Iteration      1(   6)  ---------------------------------------


    POTLOK:  cpu time      1.4270: real time      0.2049
    SETDIJ:  cpu time      0.2079: real time      0.0299
    EDDIAG:  cpu time      3.7045: real time      0.5324
  RMM-DIIS:  cpu time      9.5410: real time      4.3364
    ORTHCH:  cpu time      0.2269: real time      0.1147
       DOS:  cpu time      0.0228: real time      0.0114
    CHARGE:  cpu time      0.8180: real time      0.2960
    MIXING:  cpu time      0.1129: real time      0.0163
    --------------------------------------------
      LOOP:  cpu time     16.0610: real time      5.5420

 eigenvalue-minimisations  : 17600
 total energy-change (2. order) : 0.2464192E+02  (-0.1031075E+02)
 number of electron     144.0000005 magnetization 
 augmentation part       12.0607365 magnetization 

 Broyden mixing:
  rms(total) = 0.77485E+00    rms(broyden)= 0.77433E+00
  rms(prec ) = 0.87960E+00
  weight for this iteration     100.00

 eigenvalues of (default mixing * dielectric matrix)
  average eigenvalue GAMMA=   0.9975
  0.9975

 Free energy of the ion-electron system (eV)
  ---------------------------------------------------
  alpha Z        PSCENC =       221.47574156
  Ewald energy   TEWEN  =     -7125.17054963
  -Hartree energ DENC   =     -2208.01358742
  -exchange      EXHF   =         0.00000000
  -V(xc)+E(xc)   XCENC  =       219.23724921
  PAW double counting   =      5681.66407219    -5337.36169416
  entropy T*S    EENTRO =        -0.00000000
  eigenvalues    EBANDS =      -100.48350454
  atomic energy  EATOM  =      8424.91513549
  Solvation  Ediel_sol  =         0.00000000
  ---------------------------------------------------
  free energy    TOTEN  =      -223.73713730 eV

  energy without entropy =     -223.73713730  energy(sigma->0) =     -223.73713730


--------------------------------------------------------------------------------------------------------




--------------------------------------- Iteration      1(   7)  ---------------------------------------


    POTLOK:  cpu time      1.3814: real time      0.1985
    SETDIJ:  cpu time      0.2065: real time      0.0295
    EDDIAG:  cpu time      3.6923: real time      0.5306
  RMM-DIIS:  cpu time     10.4859: real time      4.8532
    ORTHCH:  cpu time      0.2269: real time      0.1146
       DOS:  cpu time      0.0224: real time      0.0112
    CHARGE:  cpu time      0.7760: real time      0.2905
    MIXING:  cpu time      0.0861: real time      0.0123
    --------------------------------------------
      LOOP:  cpu time     16.8775: real time      6.0405

 eigenvalue-minimisations  : 17600
 total energy-change (2. order) :-0.6011267E+00  (-0.8943768E+00)
 number of electron     144.0000005 magnetization 
 augmentation part       11.7764209 magnetization 

 Broyden mixing:
  rms(total) = 0.54620E+00    rms(broyden)= 0.54611E+00
  rms(prec ) = 0.59005E+00
  weight for this iteration     100.00

 eigenvalues of (default mixing * dielectric matrix)
  average eigenvalue GAMMA=   1.7524
  1.1789  2.3259

 Free energy of the ion-electron system (eV)
  ---------------------------------------------------
  alpha Z        PSCENC =       221.47574156
  Ewald energy   TEWEN  =     -7125.17054963
  -Hartree energ DENC   =     -2246.25275638
  -exchange      EXHF   =         0.00000000
  -V(xc)+E(xc)   XCENC  =       222.30547203
  PAW double counting   =      5889.00834180    -5544.84888974
  entropy T*S    EENTRO =        -0.00000000
  eigenvalues    EBANDS =       -65.77075912
  atomic energy  EATOM  =      8424.91513549
  Solvation  Ediel_sol  =         0.00000000
  ---------------------------------------------------
  free energy    TOTEN  =      -224.33826399 eV

  energy without entropy =     -224.33826399  energy(sigma->0) =     -224.33826399


--------------------------------------------------------------------------------------------------------




--------------------------------------- Iteration      1(   8)  ---------------------------------------


    POTLOK:  cpu time      1.3821: real time      0.1982
    SETDIJ:  cpu time      0.2073: real time      0.0297
    EDDIAG:  cpu time      3.7056: real time      0.5312
  RMM-DIIS:  cpu time     10.4565: real time      4.8930
    ORTHCH:  cpu time      0.2269: real time      0.1146
       DOS:  cpu time      0.0226: real time      0.0113
    CHARGE:  cpu time      0.7755: real time      0.2899
    MIXING:  cpu time      0.0908: real time      0.0131
    --------------------------------------------
      LOOP:  cpu time     16.8672: real time      6.0811

 eigenvalue-minimisations  : 17600
 total energy-change (2. order) :-0.8719738E-01  (-0.8158286E-01)
 number of electron     144.0000005 magnetization 
 augmentation part       11.8222311 magnetization 

 Broyden mixing:
  rms(total) = 0.72587E-01    rms(broyden)= 0.72585E-01
  rms(prec ) = 0.87843E-01
  weight for this iteration     100.00

 eigenvalues of (default mixing * dielectric matrix)
  average eigenvalue GAMMA=   1.5163
  2.5430  1.0650  0.9409

 Free energy of the ion-electron system (eV)
  ---------------------------------------------------
  alpha Z        PSCENC =       221.47574156
  Ewald energy   TEWEN  =     -7125.17054963
  -Hartree energ DENC   =     -2240.45231471
  -exchange      EXHF   =         0.00000000
  -V(xc)+E(xc)   XCENC  =       222.67512517
  PAW double counting   =      6043.87361620    -5699.07550868
  entropy T*S    EENTRO =        -0.00000000
  eigenvalues    EBANDS =       -72.66670677
  atomic energy  EATOM  =      8424.91513549
  Solvation  Ediel_sol  =         0.00000000
  ---------------------------------------------------
  free energy    TOTEN  =      -224.42546137 eV

  energy without entropy =     -224.42546137  energy(sigma->0) =     -224.42546137


--------------------------------------------------------------------------------------------------------




--------------------------------------- Iteration      1(   9)  ---------------------------------------


    POTLOK:  cpu time      1.3871: real time      0.1994
    SETDIJ:  cpu time      0.2026: real time      0.0291
    EDDIAG:  cpu time      3.6899: real time      0.5313
  RMM-DIIS:  cpu time     10.4774: real time      4.9041
    ORTHCH:  cpu time      0.2269: real time      0.1146
       DOS:  cpu time      0.0226: real time      0.0113
    CHARGE:  cpu time      0.7760: real time      0.2907
    MIXING:  cpu time      0.3188: real time      0.0457
    --------------------------------------------
      LOOP:  cpu time     17.1014: real time      6.1262

 eigenvalue-minimisations  : 17643
 total energy-change (2. order) :-0.9301361E-02  (-0.1605745E-01)
 number of electron     144.0000005 magnetization 
 augmentation part       11.7878587 magnetization 

 Broyden mixing:
  rms(total) = 0.34551E-01    rms(broyden)= 0.34550E-01
  rms(prec ) = 0.37995E-01
  weight for this iteration     100.00

 eigenvalues of (default mixing * dielectric matrix)
  average eigenvalue GAMMA=   1.6717
  1.0650  1.0650  2.2784  2.2784

 Free energy of the ion-electron system (eV)
  ---------------------------------------------------
  alpha Z        PSCENC =       221.47574156
  Ewald energy   TEWEN  =     -7125.17054963
  -Hartree energ DENC   =     -2247.86938984
  -exchange      EXHF   =         0.00000000
  -V(xc)+E(xc)   XCENC  =       223.28177854
  PAW double counting   =      6069.94697454    -5725.25621130
  entropy T*S    EENTRO =        -0.00000000
  eigenvalues    EBANDS =       -65.75824211
  atomic energy  EATOM  =      8424.91513549
  Solvation  Ediel_sol  =         0.00000000
  ---------------------------------------------------
  free energy    TOTEN  =      -224.43476273 eV

  energy without entropy =     -224.43476273  energy(sigma->0) =     -224.43476273


--------------------------------------------------------------------------------------------------------




--------------------------------------- Iteration      1(  10)  ---------------------------------------


    POTLOK:  cpu time      1.3999: real time      0.2016
    SETDIJ:  cpu time      0.2406: real time      0.0345
    EDDIAG:  cpu time      3.7921: real time      0.5441
  RMM-DIIS:  cpu time     10.2553: real time      4.8790
    ORTHCH:  cpu time      0.2378: real time      0.1220
       DOS:  cpu time      0.0097: real time      0.0049
    CHARGE:  cpu time      0.7963: real time      0.2998
    MIXING:  cpu time      0.0906: real time      0.0129
    --------------------------------------------
      LOOP:  cpu time     16.8223: real time      6.0988

 eigenvalue-minimisations  : 17600
 total energy-change (2. order) :-0.7400154E-02  (-0.7831360E-02)
 number of electron     144.0000005 magnetization 
 augmentation part       11.7460060 magnetization 

 Broyden mixing:
  rms(total) = 0.35302E-01    rms(broyden)= 0.35293E-01
  rms(prec ) = 0.39699E-01
  weight for this iteration     100.00

 eigenvalues of (default mixing * dielectric matrix)
  average eigenvalue GAMMA=   1.6839
  2.7140  2.7140  1.0707  1.0707  0.8499

 Free energy of the ion-electron system (eV)
  ---------------------------------------------------
  alpha Z        PSCENC =       221.47574156
  Ewald energy   TEWEN  =     -7125.17054963
  -Hartree energ DENC   =     -2252.65207616
  -exchange      EXHF   =         0.00000000
  -V(xc)+E(xc)   XCENC  =       223.60947774
  PAW double counting   =      6062.43066304    -5717.88392121
  entropy T*S    EENTRO =        -0.00000000
  eigenvalues    EBANDS =       -61.16663372
  atomic energy  EATOM  =      8424.91513549
  Solvation  Ediel_sol  =         0.00000000
  ---------------------------------------------------
  free energy    TOTEN  =      -224.44216289 eV

  energy without entropy =     -224.44216289  energy(sigma->0) =     -224.44216289


--------------------------------------------------------------------------------------------------------




--------------------------------------- Iteration      1(  11)  ---------------------------------------


    POTLOK:  cpu time      1.3761: real time      0.1972
    SETDIJ:  cpu time      0.2126: real time      0.0304
    EDDIAG:  cpu time      3.7522: real time      0.5399
  RMM-DIIS:  cpu time     10.8779: real time      5.0807
    ORTHCH:  cpu time      0.2380: real time      0.1219
       DOS:  cpu time      0.0085: real time      0.0042
    CHARGE:  cpu time      0.7922: real time      0.2989
    MIXING:  cpu time      0.0952: real time      0.0136
    --------------------------------------------
      LOOP:  cpu time     17.3526: real time      6.2868

 eigenvalue-minimisations  : 17630
 total energy-change (2. order) : 0.2022486E-02  (-0.9429989E-03)
 number of electron     144.0000005 magnetization 
 augmentation part       11.7516093 magnetization 

 Broyden mixing:
  rms(total) = 0.13182E-01    rms(broyden)= 0.13182E-01
  rms(prec ) = 0.14861E-01
  weight for this iteration     100.00

 eigenvalues of (default mixing * dielectric matrix)
  average eigenvalue GAMMA=   1.6082
  2.7517  2.3098  1.4178  1.1456  1.1456  0.8788

 Free energy of the ion-electron system (eV)
  ---------------------------------------------------
  alpha Z        PSCENC =       221.47574156
  Ewald energy   TEWEN  =     -7125.17054963
  -Hartree energ DENC   =     -2250.08861477
  -exchange      EXHF   =         0.00000000
  -V(xc)+E(xc)   XCENC  =       223.44546040
  PAW double counting   =      6054.25714734    -5709.64856561
  entropy T*S    EENTRO =        -0.00000000
  eigenvalues    EBANDS =       -63.62589518
  atomic energy  EATOM  =      8424.91513549
  Solvation  Ediel_sol  =         0.00000000
  ---------------------------------------------------
  free energy    TOTEN  =      -224.44014040 eV

  energy without entropy =     -224.44014040  energy(sigma->0) =     -224.44014040


--------------------------------------------------------------------------------------------------------




--------------------------------------- Iteration      1(  12)  ---------------------------------------


    POTLOK:  cpu time      1.3802: real time      0.1973
    SETDIJ:  cpu time      0.2124: real time      0.0304
    EDDIAG:  cpu time      3.7571: real time      0.5396
  RMM-DIIS:  cpu time     10.6710: real time      4.9771
    ORTHCH:  cpu time      0.2378: real time      0.1219
       DOS:  cpu time      0.0084: real time      0.0042
    CHARGE:  cpu time      0.9045: real time      0.3149
    MIXING:  cpu time      0.0916: real time      0.0131
    --------------------------------------------
      LOOP:  cpu time     17.2630: real time      6.1985

 eigenvalue-minimisations  : 17600
 total energy-change (2. order) : 0.3032094E-04  (-0.5235571E-03)
 number of electron     144.0000005 magnetization 
 augmentation part       11.7613215 magnetization 

 Broyden mixing:
  rms(total) = 0.42286E-02    rms(broyden)= 0.42234E-02
  rms(prec ) = 0.47099E-02
  weight for this iteration     100.00

 eigenvalues of (default mixing * dielectric matrix)
  average eigenvalue GAMMA=   1.6033
  2.7868  2.4030  2.4030  1.0958  1.0958  0.8563  0.5823

 Free energy of the ion-electron system (eV)
  ---------------------------------------------------
  alpha Z        PSCENC =       221.47574156
  Ewald energy   TEWEN  =     -7125.17054963
  -Hartree energ DENC   =     -2248.81033523
  -exchange      EXHF   =         0.00000000
  -V(xc)+E(xc)   XCENC  =       223.35845637
  PAW double counting   =      6053.65520709    -5709.00116361
  entropy T*S    EENTRO =        -0.00000000
  eigenvalues    EBANDS =       -64.86260213
  atomic energy  EATOM  =      8424.91513549
  Solvation  Ediel_sol  =         0.00000000
  ---------------------------------------------------
  free energy    TOTEN  =      -224.44011008 eV

  energy without entropy =     -224.44011008  energy(sigma->0) =     -224.44011008


--------------------------------------------------------------------------------------------------------




--------------------------------------- Iteration      1(  13)  ---------------------------------------


    POTLOK:  cpu time      1.3809: real time      0.1974
    SETDIJ:  cpu time      0.2081: real time      0.0298
    EDDIAG:  cpu time      3.7573: real time      0.5397
  RMM-DIIS:  cpu time     11.3153: real time      5.3039
    ORTHCH:  cpu time      0.2378: real time      0.1219
       DOS:  cpu time      0.0096: real time      0.0048
    CHARGE:  cpu time      0.7928: real time      0.2997
    MIXING:  cpu time      0.0935: real time      0.0134
    --------------------------------------------
      LOOP:  cpu time     17.7953: real time      6.5105

 eigenvalue-minimisations  : 18227
 total energy-change (2. order) :-0.7152294E-04  (-0.4856692E-04)
 number of electron     144.0000005 magnetization 
 augmentation part       11.7619815 magnetization 

 Broyden mixing:
  rms(total) = 0.52193E-02    rms(broyden)= 0.52190E-02
  rms(prec ) = 0.58802E-02
  weight for this iteration     100.00

 eigenvalues of (default mixing * dielectric matrix)
  average eigenvalue GAMMA=   1.6767
  2.8226  2.8226  2.7749  1.0988  1.0988  1.0511  0.9565  0.7882

 Free energy of the ion-electron system (eV)
  ---------------------------------------------------
  alpha Z        PSCENC =       221.47574156
  Ewald energy   TEWEN  =     -7125.17054963
  -Hartree energ DENC   =     -2248.74741940
  -exchange      EXHF   =         0.00000000
  -V(xc)+E(xc)   XCENC  =       223.35225909
  PAW double counting   =      6053.71258504    -5709.04623005
  entropy T*S    EENTRO =        -0.00000000
  eigenvalues    EBANDS =       -64.93170370
  atomic energy  EATOM  =      8424.91513549
  Solvation  Ediel_sol  =         0.00000000
  ---------------------------------------------------
  free energy    TOTEN  =      -224.44018160 eV

  energy without entropy =     -224.44018160  energy(sigma->0) =     -224.44018160


--------------------------------------------------------------------------------------------------------




--------------------------------------- Iteration      1(  14)  ---------------------------------------


    POTLOK:  cpu time      1.3809: real time      0.1976
    SETDIJ:  cpu time      0.2091: real time      0.0299
    EDDIAG:  cpu time      3.7772: real time      0.5430
  RMM-DIIS:  cpu time     10.7177: real time      5.0107
    ORTHCH:  cpu time      0.2379: real time      0.1219
       DOS:  cpu time      0.0102: real time      0.0051
    CHARGE:  cpu time      0.8021: real time      0.3014
    MIXING:  cpu time      0.0972: real time      0.0139
    --------------------------------------------
      LOOP:  cpu time     17.2324: real time      6.2235

 eigenvalue-minimisations  : 17600
 total energy-change (2. order) : 0.4817695E-04  (-0.1704980E-04)
 number of electron     144.0000005 magnetization 
[...]
  227          m_sumb_d                              0.028829                          3   4
  228        fordep                                0.376247                            3   3
  229          setdij_                               0.376136                         18   4
  230        setdij_                               1.251024                           60   3
  231        set_dd_magatom                        0.000018                            3   3
  232        set_dd_paw                            0.027316                            3   3
  233          m_sumb_d                              0.005644                         21   4
  234        strkin                                0.077580                            3   3
  235          m_sumb_d                              0.000212                          3   4
  236        strelo                                0.017812                            3   3
  237        strnlr                               16.101822                            3   3
  238          rspher_all                            0.406084                         27   4
  239          phaser                                4.094632                        675   4
  240          rpro_isp                             11.221549                        675   4
  241            fftwav_mpi                            2.315962                    59400   5
  242              fftwav                                2.228189                  59400   6
  243                fft3d                                 1.710141                59400   7
  244            rpromu_acc                            8.764666                    14850   5
  245          m_sumb_d                              0.125932                         27   4
  246        fft3d_mpi                             0.144250                           33   3
  247          fftbrc_mpi                            0.114810                         33   4
  248            fftbas_plan_mpi                       0.114782                       33   5
  249              dfftw_execute                         0.078347                     99   6
  250              map_forward                           0.014001                     30   6
  251                map_scatter                           0.010210                   15   7
  252              map_backward                          0.020006                     36   6
  253                map_gather                            0.012492                   18   7
  254        ggaall_grid                           0.117369                            3   3
  255        forhar                                0.115532                            6   3
  256        strehar                               0.009026                            3   3
  257        chggra                                0.086003                            3   3
  258          fft3d_mpi                             0.078416                          9   4
  259            fftbrc_mpi                            0.075590                        9   5
  260              fftbas_plan_mpi                       0.075581                      9   6
  261                map_forward                           0.000109                   12   7
  262                  map_scatter                           0.000028                  6   8
  263                map_backward                          0.000035                    6   7
  264                  map_gather                            0.000010                  3   8
  265          pothar                                0.001129                          3   4
  266        brmix                                 0.060112                            3   3
  267          brpre                                 0.000731                          3   4
  268          setg0                                 0.016844                          3   4
  269          broyd                                 0.008452                          3   4
  270            brget                                 0.001514                      142   5
  271            brsav                                 0.000940                       38   5
  272          m_bcast_z                             0.027710                          3   4
  273          m_bcast_d                             0.000300                          3   4
  274        m_bcast_d                             0.000069                            6   3
  275      potlok                                0.589364                              3   2
  276        fft3d_mpi                             0.160676                           39   3
  277          fftbrc_mpi                            0.127052                         39   4
  278            fftbas_plan_mpi                       0.127022                       39   5
  279              dfftw_execute                         0.087956                    117   6
  280              map_forward                           0.016507                     42   6
  281                map_scatter                           0.012191                   21   7
  282              map_backward                          0.019701                     36   6
  283                map_gather                            0.012241                   18   7
  284        ggaall_grid                           0.117361                            3   3
  285        pothar                                0.019772                            3   3
  286      potlok_metagga                        0.000003                              3   2
  287      set_dd_magatom                        0.000015                              3   2
  288      set_dd_paw                            0.021918                              3   2
  289        m_sumb_d                              0.000267                           21   3
  290      wavpre_noio                           0.188418                              2   2
  291        stufak                                0.037107                            2   3
  292      densta                                0.003795                              1   2
  293        m_sumb_d                              0.000125                            8   3
 
 Flat profile
 ============
 
             routine name                   CPU           calls
 ---------------------------------------------------------------
 eddav                                  26.052352           7
 rpromu_acc                             22.530781       49839
 i2                                     18.568670       23971
 hamiltmu                               15.661888       30314
 i3                                     14.766432       23971
 fft3d                                  13.710651      612276
 phaser                                 10.465688        1725
 m_sumb_d                               10.154122         766
 eddiag                                  8.474261          23
 newband                                 8.065572       31064
 total_time                              7.119552           1
 cnorma                                  6.582772      438366
 lapack                                  5.922320        6343
 racc0mu_acc                             4.308291       30314
 orth1                                   4.094398       20829
 eccp                                    3.907484      212122
 raccmu_                                 3.395569       30314
 w1_copy                                 3.129101      438798
 choleski                                3.033917         650
 potlok                                  2.824744          29
 fftwav                                  2.786057      415410
 w1_gemv                                 2.544560      360816
 setdij_                                 2.259742         108
 w1_dot                                  2.227723       50600
 overl_mu                                2.167829       30314
 w1_dscal                                2.017392      230288
 w1_daxpy                                1.363089      191044
 ggaall_grid                             1.255531          32
 dfftw_execute                           1.015982        1395
 kinhamil                                0.718014      196866
 fftext_mpi                              0.689831      196866
 fftwav_mpi                              0.654898      415410
 augmentation_charge                     0.648752          26
 lincom                                  0.638651        1400
 w1_gaxpy                                0.633536       91200
 vhamil                                  0.628936      196866
 elmin                                   0.615766           3
 overl1                                  0.613288       90204
 rspher_all                              0.577648          40
 eccp_nl                                 0.559286      292244
 set_charge                              0.546607          26
 apply_precond                           0.526103      177144
 fft3d_mpi                               0.498004      197340
 overl                                   0.478837       87313
 depsum                                  0.449847          26
 init_hip                                0.404834           1
 setup_precond                           0.402626       66000
 force_and_stress                        0.344095           3
 ggemm                                   0.341691        8268
 zhegv                                   0.303689       44922
 strnlr                                  0.253626           3
 eddrmm                                  0.250192          23
 m_bcast_z                               0.243206          63
 set_dd_paw                              0.231369          32
 pothar                                  0.193012          32
 rpro_isp                                0.190670         975
 fftbas_plan_mpi                         0.186811         474
 orthch                                  0.173404          26
 map_gather                              0.155289         247
 wavpre_noio                             0.151311           2
 setg0                                   0.140817          29
 proall                                  0.140007           3
 map_scatter                             0.132241         227
 densta                                  0.120463          31
 forhar                                  0.115532           6
 map_backward                            0.093355         494
 pw_charge                               0.091165       46800
 fornlr                                  0.081827           3
 forloc                                  0.078042           3
 strkin                                  0.077368           3
 soft_charge                             0.070622          26
 w1_projall                              0.065802       28389
 stufak                                  0.056739           3
 i1                                      0.052302       23971
 brmix                                   0.050652          26
 map_forward                             0.049729         454
 hamilt_local                            0.048105       50600
 inisym                                  0.034184           1
 broyd                                   0.029634          26
 truncate_high_frequency_w1              0.029331      212266
 strelo                                  0.017812           3
 hip_hipfft_makeplan                     0.017803           6
 strehar                                 0.009026           3
 brget                                   0.008180         796
 chggra                                  0.006458           3
 brsav                                   0.006168         249
 brpre                                   0.006147          26
 m_bcast_d                               0.003861          45
 rsp                                     0.003214           3
 brgrid                                  0.002074           1
 fft_gq                                  0.002038          26
 fewald                                  0.001549           3
 fftbrc_mpi                              0.000437         474
 shift_bands_between_low_high            0.000415         575
 rcp                                     0.000325           3
 vectorpot                               0.000310          27
 posmap                                  0.000194           2
 hip_init_hipblas                        0.000191           1
 set_dd_magatom                          0.000137          32
 fordep                                  0.000111           3
 hip_init_rocsolver                      0.000069           1
 crpa_reader                             0.000067           1
 potlok_metagga                          0.000029          29
 rotate_active_occupied_orbital          0.000013           3
 hip_hipfft_makeplans                    0.000006           3
 redis_pw_over_bands                     0.000001           3
 ---------------------------------------------------------------
  summed up times    225.354846000671     
 
 Accumulative profile
 ====================
 
             routine name                   CPU           calls
 ---------------------------------------------------------------
 total_time                            225.354846           1
 elmin                                 185.742930           3
 eddrmm                                106.644180          23
 eddav                                  50.123678           7
 hamiltmu                               30.213458       30314
 i3                                     28.998602       23971
 i2                                     28.498905       23971
 force_and_stress                       25.007444           3
 rpromu_acc                             22.530781       49839
 rpro_isp                               16.459700         975
 strnlr                                 16.101822           3
 fft3d                                  13.710651      612276
 fftwav_mpi                             12.981908      415410
 fftwav                                 12.327010      415410
 eddiag                                 12.245059          23
 newband                                12.217995       31064
 phaser                                 10.465688        1725
 m_sumb_d                               10.154122         766
 w1_projall                              9.980981       28389
 raccmu_                                 9.871688       30314
 set_charge                              7.695878          26
 cnorma                                  7.142058      438366
 orthch                                  6.657902          26
 fft3d_mpi                               6.301546      197340
 lapack                                  5.922320        6343
 soft_charge                             5.885037          26
 potlok                                  5.726123          29
 kinhamil                                5.686649      196866
 fornlr                                  5.312920           3
 fftext_mpi                              4.968635      196866
 racc0mu_acc                             4.308291       30314
 orth1                                   4.094398       20829
 eccp                                    3.907484      212122
 w1_gemv                                 3.157848      360816
 w1_copy                                 3.129101      438798
 choleski                                3.033917         650
 setdij_                                 2.259742         108
 w1_dot                                  2.227723       50600
 overl_mu                                2.167829       30314
 proall                                  2.138561           3
 w1_dscal                                2.017392      230288
 hamilt_local                            1.683808       50600
 fftbrc_mpi                              1.633844         474
 fftbas_plan_mpi                         1.633406         474
 w1_daxpy                                1.363089      191044
 ggaall_grid                             1.255531          32
 dfftw_execute                           1.015982        1395
 augmentation_charge                     0.762107          26
 i1                                      0.716129       23971
 lincom                                  0.638651        1400
 w1_gaxpy                                0.633536       91200
 vhamil                                  0.628936      196866
 overl1                                  0.613288       90204
 rspher_all                              0.577648          40
 eccp_nl                                 0.559286      292244
 apply_precond                           0.526103      177144
 depsum                                  0.502126          26
 brmix                                   0.484411          26
 overl                                   0.478837       87313
 init_hip                                0.404834           1
 setup_precond                           0.402626       66000
 fordep                                  0.376247           3
 ggemm                                   0.341691        8268
 set_dd_paw                              0.318429          32
 zhegv                                   0.303689       44922
 map_backward                            0.248644         494
 m_bcast_z                               0.243206          63
 pothar                                  0.193012          32
 wavpre_noio                             0.188418           2
 map_forward                             0.181970         454
 map_gather                              0.155289         247
 setg0                                   0.140817          29
 map_scatter                             0.132241         227
 densta                                  0.124913          31
 forhar                                  0.115532           6
 fft_gq                                  0.100279          26
 pw_charge                               0.091165       46800
 chggra                                  0.086003           3
 forloc                                  0.078042           3
 strkin                                  0.077580           3
 stufak                                  0.056739           3
 broyd                                   0.043982          26
 inisym                                  0.034378           1
 truncate_high_frequency_w1              0.029331      212266
 strelo                                  0.017812           3
 hip_hipfft_makeplans                    0.017809           3
 hip_hipfft_makeplan                     0.017803           6
 strehar                                 0.009026           3
 brget                                   0.008180         796
 brsav                                   0.006168         249
 brpre                                   0.006147          26
 fewald                                  0.005292           3
 m_bcast_d                               0.003861          45
 rsp                                     0.003214           3
 brgrid                                  0.002074           1
 shift_bands_between_low_high            0.000415         575
 rcp                                     0.000325           3
 vectorpot                               0.000310          27
 posmap                                  0.000194           2
 hip_init_hipblas                        0.000191           1
 set_dd_magatom                          0.000137          32
 hip_init_rocsolver                      0.000069           1
 crpa_reader                             0.000067           1
 potlok_metagga                          0.000029          29
 rotate_active_occupied_orbital          0.000013           3
 redis_pw_over_bands                     0.000001           3
 ---------------------------------------------------------------
 
Profiling took   1.073245  0.646265  0.002850  0.002728 seconds
Profiling took   0.780099 seconds
