<?xml version="1.0" encoding="ISO-8859-1"?>
<modeling>
 <generator>
  <i name="program" type="string">vasp </i>
  <i name="version" type="string">6.3.2  </i>
  <i name="subversion" type="string">27Jun22 (build Mar 15 2023 15:45:48) complex                          parallel </i>
  <i name="platform" type="string">LinuxIFC </i>
  <i name="date" type="string">2024 07 18 </i>
  <i name="time" type="string">23:05:20 </i>
 </generator>
 <incar>
  <i type="string" name="SYSTEM">ni3al</i>
  <i type="int" name="ISTART">     0</i>
  <i type="string" name="PREC">Accurate</i>
  <i type="string" name="ALGO">Fast</i>
  <i name="AMIN">      0.01000000</i>
  <i type="int" name="ICHARG">     2</i>
  <i type="int" name="NELM">   150</i>
  <i type="int" name="IBRION">     2</i>
  <i name="EDIFF">      0.00000100</i>
  <i name="EDIFFG">     -0.01000000</i>
  <i type="int" name="NSW">   300</i>
  <i type="int" name="ISIF">     3</i>
  <i name="ENCUT">    530.00000000</i>
  <i type="string" name="LREAL">Auto</i>
  <i type="int" name="ISMEAR">     0</i>
  <i name="SIGMA">      0.10000000</i>
  <i type="int" name="LMAXMIX">     4</i>
  <i type="logical" name="LWAVE"> F  </i>
  <i type="logical" name="LCHARG"> F  </i>
 </incar>
 <primitive_cell>
  <structure name="primitive_cell" >
   <crystal>
    <varray name="basis" >
     <v>      -2.40251361      -1.38709188       4.37208442 </v>
     <v>       2.40251361      -1.38709188       4.37208442 </v>
     <v>      -0.00000000       2.77418376       4.37208442 </v>
    </varray>
    <i name="volume">     87.42001467 </i>
    <varray name="rec_basis" >
     <v>      -0.20811537      -0.12015546       0.07624128 </v>
     <v>       0.20811537      -0.12015546       0.07624128 </v>
     <v>       0.00000000       0.24031093       0.07624128 </v>
    </varray>
   </crystal>
   <varray name="positions" >
    <v>       0.14790400       0.14790400       0.14790400 </v>
    <v>       0.35209600       0.35209600       0.35209600 </v>
    <v>       0.64790400       0.64790400       0.64790400 </v>
    <v>       0.85209600       0.85209600       0.85209600 </v>
    <v>       0.25000000       0.94385450       0.55614550 </v>
    <v>       0.05614550       0.44385450       0.75000000 </v>
    <v>       0.94385450       0.55614550       0.25000000 </v>
    <v>       0.55614550       0.25000000       0.94385450 </v>
    <v>       0.44385450       0.75000000       0.05614550 </v>
    <v>       0.75000000       0.05614550       0.44385450 </v>
   </varray>
  </structure>
  <varray name="primitive_index" >
   <v type="int" >        1 </v>
   <v type="int" >        6 </v>
   <v type="int" >        7 </v>
   <v type="int" >        4 </v>
   <v type="int" >       19 </v>
   <v type="int" >       14 </v>
   <v type="int" >       15 </v>
   <v type="int" >       22 </v>
   <v type="int" >       23 </v>
   <v type="int" >       18 </v>
  </varray>
 </primitive_cell>
 <kpoints>
  <generation param="Gamma">
   <v type="int" name="divisions">      15       15        4 </v>
   <v name="usershift">      0.00000000       0.00000000       0.00000000 </v>
   <v name="genvec1">      0.06666667       0.00000000       0.00000000 </v>
   <v name="genvec2">      0.00000000       0.06666667       0.00000000 </v>
   <v name="genvec3">      0.00000000       0.00000000       0.25000000 </v>
   <v name="shift">      0.00000000       0.00000000       0.00000000 </v>
  </generation>
  <varray name="kpointlist" >
   <v>       0.00000000       0.00000000       0.00000000 </v>
   <v>       0.06666667       0.00000000       0.00000000 </v>
   <v>       0.13333333       0.00000000       0.00000000 </v>
   <v>       0.20000000       0.00000000       0.00000000 </v>
   <v>       0.26666667       0.00000000       0.00000000 </v>
   <v>       0.33333333       0.00000000       0.00000000 </v>
   <v>       0.40000000      -0.00000000       0.00000000 </v>
   <v>       0.46666667       0.00000000       0.00000000 </v>
   <v>       0.06666667       0.06666667       0.00000000 </v>
   <v>       0.13333333       0.06666667       0.00000000 </v>
   <v>       0.20000000       0.06666667       0.00000000 </v>
   <v>       0.26666667       0.06666667       0.00000000 </v>
   <v>       0.33333333       0.06666667       0.00000000 </v>
   <v>       0.40000000       0.06666667       0.00000000 </v>
   <v>       0.46666667       0.06666667       0.00000000 </v>
   <v>       0.13333333       0.13333333       0.00000000 </v>
   <v>       0.20000000       0.13333333       0.00000000 </v>
   <v>       0.26666667       0.13333333       0.00000000 </v>
   <v>       0.33333333       0.13333333       0.00000000 </v>
   <v>       0.40000000       0.13333333       0.00000000 </v>
   <v>       0.20000000       0.20000000       0.00000000 </v>
   <v>       0.26666667       0.20000000       0.00000000 </v>
   <v>       0.33333333       0.20000000       0.00000000 </v>
   <v>       0.40000000       0.20000000       0.00000000 </v>
   <v>       0.26666667       0.26666667       0.00000000 </v>
   <v>       0.33333333       0.26666667       0.00000000 </v>
   <v>       0.33333333       0.33333333       0.00000000 </v>
   <v>       0.00000000       0.00000000       0.25000000 </v>
   <v>       0.06666667       0.00000000       0.25000000 </v>
   <v>       0.00000000       0.06666667       0.25000000 </v>
   <v>       0.13333333       0.00000000       0.25000000 </v>
   <v>       0.00000000       0.13333333       0.25000000 </v>
   <v>       0.20000000       0.00000000       0.25000000 </v>
   <v>       0.00000000       0.20000000       0.25000000 </v>
   <v>       0.26666667       0.00000000       0.25000000 </v>
   <v>       0.00000000       0.26666667       0.25000000 </v>
   <v>       0.33333333       0.00000000       0.25000000 </v>
   <v>       0.00000000       0.33333333       0.25000000 </v>
   <v>       0.40000000      -0.00000000       0.25000000 </v>
   <v>      -0.00000000       0.40000000       0.25000000 </v>
   <v>       0.46666667       0.00000000       0.25000000 </v>
   <v>       0.00000000       0.46666667       0.25000000 </v>
   <v>       0.06666667       0.06666667       0.25000000 </v>
   <v>       0.13333333       0.06666667       0.25000000 </v>
   <v>      -0.06666667       0.20000000       0.25000000 </v>
   <v>       0.20000000       0.06666667       0.25000000 </v>
   <v>      -0.06666667       0.26666667       0.25000000 </v>
   <v>       0.26666667       0.06666667       0.25000000 </v>
   <v>      -0.06666667       0.33333333       0.25000000 </v>
   <v>       0.33333333       0.06666667       0.25000000 </v>
   <v>      -0.06666667       0.40000000       0.25000000 </v>
   <v>       0.40000000       0.06666667       0.25000000 </v>
   <v>      -0.06666667       0.46666667       0.25000000 </v>
   <v>       0.46666667       0.06666667       0.25000000 </v>
   <v>       0.13333333       0.13333333       0.25000000 </v>
   <v>       0.20000000       0.13333333       0.25000000 </v>
   <v>      -0.13333333       0.33333333       0.25000000 </v>
   <v>       0.26666667       0.13333333       0.25000000 </v>
   <v>      -0.13333333       0.40000000       0.25000000 </v>
   <v>       0.33333333       0.13333333       0.25000000 </v>
   <v>      -0.13333333       0.46666667       0.25000000 </v>
   <v>       0.40000000       0.13333333       0.25000000 </v>
   <v>      -0.13333333      -0.46666667       0.25000000 </v>
   <v>       0.20000000       0.20000000       0.25000000 </v>
   <v>       0.26666667       0.20000000       0.25000000 </v>
   <v>      -0.20000000       0.46666667       0.25000000 </v>
   <v>       0.33333333       0.20000000       0.25000000 </v>
   <v>      -0.20000000      -0.46666667       0.25000000 </v>
   <v>       0.40000000       0.20000000       0.25000000 </v>
   <v>       0.26666667       0.26666667       0.25000000 </v>
   <v>       0.33333333       0.26666667       0.25000000 </v>
   <v>      -0.26666667      -0.40000000       0.25000000 </v>
   <v>       0.33333333       0.33333333       0.25000000 </v>
   <v>       0.00000000       0.00000000       0.50000000 </v>
   <v>       0.06666667       0.00000000       0.50000000 </v>
   <v>       0.13333333       0.00000000       0.50000000 </v>
   <v>       0.20000000       0.00000000       0.50000000 </v>
   <v>       0.26666667       0.00000000       0.50000000 </v>
   <v>       0.33333333       0.00000000       0.50000000 </v>
   <v>       0.40000000      -0.00000000       0.50000000 </v>
   <v>       0.46666667       0.00000000       0.50000000 </v>
   <v>       0.06666667       0.06666667       0.50000000 </v>
   <v>       0.13333333       0.06666667       0.50000000 </v>
   <v>       0.20000000       0.06666667       0.50000000 </v>
   <v>       0.26666667       0.06666667       0.50000000 </v>
   <v>       0.33333333       0.06666667       0.50000000 </v>
   <v>       0.40000000       0.06666667       0.50000000 </v>
   <v>       0.46666667       0.06666667       0.50000000 </v>
   <v>       0.13333333       0.13333333       0.50000000 </v>
   <v>       0.20000000       0.13333333       0.50000000 </v>
   <v>       0.26666667       0.13333333       0.50000000 </v>
   <v>       0.33333333       0.13333333       0.50000000 </v>
   <v>       0.40000000       0.13333333       0.50000000 </v>
   <v>       0.20000000       0.20000000       0.50000000 </v>
   <v>       0.26666667       0.20000000       0.50000000 </v>
   <v>       0.33333333       0.20000000       0.50000000 </v>
   <v>       0.40000000       0.20000000       0.50000000 </v>
   <v>       0.26666667       0.26666667       0.50000000 </v>
   <v>       0.33333333       0.26666667       0.50000000 </v>
   <v>       0.33333333       0.33333333       0.50000000 </v>
  </varray>
  <varray name="weights" >
   <v>       0.00111111 </v>
   <v>       0.00666667 </v>
   <v>       0.00666667 </v>
   <v>       0.00666667 </v>
   <v>       0.00666667 </v>
   <v>       0.00666667 </v>
   <v>       0.00666667 </v>
   <v>       0.00666667 </v>
   <v>       0.00666667 </v>
   <v>       0.01333333 </v>
   <v>       0.01333333 </v>
   <v>       0.01333333 </v>
   <v>       0.01333333 </v>
   <v>       0.01333333 </v>
   <v>       0.00666667 </v>
   <v>       0.00666667 </v>
   <v>       0.01333333 </v>
   <v>       0.01333333 </v>
   <v>       0.01333333 </v>
   <v>       0.01333333 </v>
   <v>       0.00666667 </v>
   <v>       0.01333333 </v>
   <v>       0.01333333 </v>
   <v>       0.00666667 </v>
   <v>       0.00666667 </v>
   <v>       0.01333333 </v>
   <v>       0.00222222 </v>
   <v>       0.00222222 </v>
   <v>       0.00666667 </v>
   <v>       0.00666667 </v>
   <v>       0.00666667 </v>
   <v>       0.00666667 </v>
   <v>       0.00666667 </v>
   <v>       0.00666667 </v>
   <v>       0.00666667 </v>
   <v>       0.00666667 </v>
   <v>       0.00666667 </v>
   <v>       0.00666667 </v>
   <v>       0.00666667 </v>
   <v>       0.00666667 </v>
   <v>       0.00666667 </v>
   <v>       0.00666667 </v>
   <v>       0.01333333 </v>
   <v>       0.01333333 </v>
   <v>       0.01333333 </v>
   <v>       0.01333333 </v>
   <v>       0.01333333 </v>
   <v>       0.01333333 </v>
   <v>       0.01333333 </v>
   <v>       0.01333333 </v>
   <v>       0.01333333 </v>
   <v>       0.01333333 </v>
   <v>       0.01333333 </v>
   <v>       0.01333333 </v>
   <v>       0.01333333 </v>
   <v>       0.01333333 </v>
   <v>       0.01333333 </v>
   <v>       0.01333333 </v>
   <v>       0.01333333 </v>
   <v>       0.01333333 </v>
   <v>       0.01333333 </v>
   <v>       0.01333333 </v>
   <v>       0.01333333 </v>
   <v>       0.01333333 </v>
   <v>       0.01333333 </v>
   <v>       0.01333333 </v>
   <v>       0.01333333 </v>
   <v>       0.01333333 </v>
   <v>       0.01333333 </v>
   <v>       0.01333333 </v>
   <v>       0.01333333 </v>
   <v>       0.01333333 </v>
   <v>       0.00444444 </v>
   <v>       0.00111111 </v>
   <v>       0.00666667 </v>
   <v>       0.00666667 </v>
   <v>       0.00666667 </v>
   <v>       0.00666667 </v>
   <v>       0.00666667 </v>
   <v>       0.00666667 </v>
   <v>       0.00666667 </v>
   <v>       0.00666667 </v>
   <v>       0.01333333 </v>
   <v>       0.01333333 </v>
   <v>       0.01333333 </v>
   <v>       0.01333333 </v>
   <v>       0.01333333 </v>
   <v>       0.00666667 </v>
   <v>       0.00666667 </v>
   <v>       0.01333333 </v>
   <v>       0.01333333 </v>
   <v>       0.01333333 </v>
   <v>       0.01333333 </v>
   <v>       0.00666667 </v>
   <v>       0.01333333 </v>
   <v>       0.01333333 </v>
   <v>       0.00666667 </v>
   <v>       0.00666667 </v>
   <v>       0.01333333 </v>
   <v>       0.00222222 </v>
  </varray>
 </kpoints>
 <parameters>
  <separator name="general" >
   <i type="string" name="SYSTEM">ni3al</i>
   <i type="logical" name="LCOMPAT"> F  </i>
  </separator>
  <separator name="electronic" >
   <i type="string" name="PREC">accura</i>
   <i name="ENMAX">    530.00000000</i>
   <i name="ENAUG">    605.39200000</i>
   <i name="EDIFF">      0.00000100</i>
   <i type="int" name="IALGO">    68</i>
   <i type="int" name="IWAVPR">    11</i>
   <i type="int" name="NBANDS">    88</i>
   <i type="int" name="NBANDSLOW">    -1</i>
   <i type="int" name="NBANDSHIGH">    -1</i>
   <i name="NELECT">    144.00000000</i>
   <i type="int" name="TURBO">     0</i>
   <i type="int" name="IRESTART">     0</i>
   <i type="int" name="NREBOOT">     0</i>
   <i type="int" name="NMIN">     0</i>
   <i name="EREF">      0.00000000</i>
   <separator name="electronic smearing" >
    <i type="int" name="ISMEAR">     0</i>
    <i name="SIGMA">      0.10000000</i>
    <i name="KSPACING">      0.50000000</i>
    <i type="logical" name="KGAMMA"> T  </i>
    <i type="logical" name="KBLOWUP"> T  </i>
   </separator>
   <separator name="electronic projectors" >
    <i type="logical" name="LREAL"> T  </i>
    <v name="ROPT">     -0.00025000     -0.00025000</v>
    <i type="int" name="LMAXPAW">  -100</i>
    <i type="int" name="LMAXMIX">     4</i>
    <i type="logical" name="NLSPLINE"> F  </i>
   </separator>
   <separator name="electronic startup" >
    <i type="int" name="ISTART">     0</i>
    <i type="int" name="ICHARG">     2</i>
    <i type="int" name="INIWAV">     1</i>
   </separator>
   <separator name="electronic spin" >
    <i type="int" name="ISPIN">     1</i>
    <i type="logical" name="LNONCOLLINEAR"> F  </i>
    <v name="MAGMOM">      1.00000000      1.00000000      1.00000000      1.00000000      1.00000000      1.00000000      1.00000000      1.00000000      1.00000000      1.00000000      1.00000000      1.00000000      1.00000000      1.00000000      1.00000000      1.00000000      1.00000000      1.00000000      1.00000000      1.00000000
      1.00000000      1.00000000      1.00000000      1.00000000      1.00000000      1.00000000      1.00000000      1.00000000      1.00000000      1.00000000</v>
    <i name="NUPDOWN">     -1.00000000</i>
    <i type="logical" name="LSORBIT"> F  </i>
    <v name="SAXIS">      0.00000000      0.00000000      1.00000000</v>
    <i type="logical" name="LSPIRAL"> F  </i>
    <v name="QSPIRAL">      0.00000000      0.00000000      0.00000000</v>
    <i type="logical" name="LZEROZ"> F  </i>
   </separator>
   <separator name="electronic exchange-correlation" >
    <i type="logical" name="LASPH"> F  </i>
    <i type="logical" name="LMETAGGA"> F  </i>
   </separator>
   <separator name="electronic convergence" >
    <i type="int" name="NELM">   150</i>
    <i type="int" name="NELMDL">    -5</i>
    <i type="int" name="NELMIN">     2</i>
    <i name="ENINI">    530.00000000</i>
    <separator name="electronic convergence detail" >
     <i type="logical" name="LDIAG"> T  </i>
     <i type="logical" name="LSUBROT"> F  </i>
     <i name="WEIMIN">      0.00100000</i>
     <i name="EBREAK">      0.00000000</i>
     <i name="DEPER">      0.30000000</i>
     <i type="int" name="NRMM">     4</i>
     <i name="TIME">      0.40000000</i>
    </separator>
   </separator>
   <separator name="electronic mixer" >
    <i name="AMIX">      0.40000000</i>
    <i name="BMIX">      1.00000000</i>
    <i name="AMIN">      0.01000000</i>
    <i name="AMIX_MAG">      1.60000000</i>
    <i name="BMIX_MAG">      1.00000000</i>
    <separator name="electronic mixer details" >
     <i type="int" name="IMIX">     4</i>
     <i type="logical" name="MIXFIRST"> F  </i>
     <i type="int" name="MAXMIX">   -45</i>
     <i name="WC">    100.00000000</i>
     <i type="int" name="INIMIX">     1</i>
     <i type="int" name="MIXPRE">     1</i>
     <i type="int" name="MREMOVE">     5</i>
    </separator>
   </separator>
   <separator name="electronic dipolcorrection" >
    <i type="logical" name="LDIPOL"> F  </i>
    <i type="logical" name="LMONO"> F  </i>
    <i type="int" name="IDIPOL">     0</i>
    <i name="EPSILON">      1.00000000</i>
    <v name="DIPOL">   -100.00000000   -100.00000000   -100.00000000</v>
    <i name="EFIELD">      0.00000000</i>
   </separator>
  </separator>
  <separator name="grids" >
   <i type="int" name="NGX">    36</i>
   <i type="int" name="NGY">    36</i>
   <i type="int" name="NGZ">    98</i>
   <i type="int" name="NGXF">    72</i>
   <i type="int" name="NGYF">    72</i>
   <i type="int" name="NGZF">   196</i>
   <i type="logical" name="ADDGRID"> F  </i>
  </separator>
  <separator name="ionic" >
   <i type="int" name="NSW">   300</i>
   <i type="int" name="IBRION">     2</i>
   <i type="int" name="MDALGO">     0</i>
   <i type="int" name="ISIF">     3</i>
   <i name="PSTRESS">      0.00000000</i>
   <i name="EDIFFG">     -0.01000000</i>
   <i type="int" name="NFREE">     1</i>
   <i name="POTIM">      0.50000000</i>
   <i name="SMASS">     -3.00000000</i>
   <i name="SCALEE">      1.00000000</i>
  </separator>
  <separator name="ionic md" >
   <i name="TEBEG">      0.00010000</i>
   <i name="TEEND">      0.00010000</i>
   <i type="int" name="NBLOCK">     1</i>
   <i type="int" name="KBLOCK">   300</i>
   <i type="int" name="NPACO">   256</i>
   <i name="APACO">     10.00000000</i>
  </separator>
  <separator name="symmetry" >
   <i type="int" name="ISYM">     2</i>
   <i name="SYMPREC">      0.00001000</i>
  </separator>
  <separator name="dos" >
   <i type="int" name="LORBIT">     0</i>
   <v name="RWIGS">     -1.00000000     -1.00000000</v>
   <i type="int" name="NEDOS">   301</i>
   <i name="EMIN">     10.00000000</i>
   <i name="EMAX">    -10.00000000</i>
   <i name="EFERMI">      0.00000000</i>
  </separator>
  <separator name="writing" >
   <i type="int" name="NWRITE">     2</i>
   <i type="logical" name="LWAVE"> F  </i>
   <i type="logical" name="LDOWNSAMPLE"> F  </i>
   <i type="logical" name="LCHARG"> F  </i>
   <i type="logical" name="LPARD"> F  </i>
   <i type="logical" name="LVTOT"> F  </i>
   <i type="logical" name="LVHAR"> F  </i>
   <i type="logical" name="LELF"> F  </i>
   <i type="logical" name="LOPTICS"> F  </i>
   <v name="STM">      0.00000000      0.00000000      0.00000000      0.00000000      0.00000000      0.00000000      0.00000000</v>
  </separator>
  <separator name="performance" >
   <i type="int" name="NPAR">     1</i>
   <i type="int" name="NSIM">     4</i>
   <i type="int" name="NBLK">    -1</i>
   <i type="logical" name="LPLANE"> T  </i>
   <i type="logical" name="LSCALAPACK"> T  </i>
   <i type="logical" name="LSCAAWARE"> F  </i>
   <i type="logical" name="LSCALU"> F  </i>
   <i type="logical" name="LASYNC"> F  </i>
   <i type="logical" name="LORBITALREAL"> F  </i>
  </separator>
  <separator name="miscellaneous" >
   <i type="int" name="IDIOT">     3</i>
   <i type="int" name="PHON_NSTRUCT">    -1</i>
   <i type="logical" name="LMUSIC"> F  </i>
   <v name="POMASS">     26.98200000     16.00000000</v>
   <v name="DARWINR">      0.00000000      0.00000000</v>
   <v name="DARWINV">      1.00000000      1.00000000</v>
   <i type="logical" name="LCORR"> T  </i>
  </separator>
  <i type="logical" name="GGA_COMPAT"> T  </i>
  <i type="logical" name="LBERRY"> F  </i>
  <i type="int" name="ICORELEVEL">     0</i>
  <i type="logical" name="LDAU"> F  </i>
  <i type="int" name="I_CONSTRAINED_M">     0</i>
  <separator name="electronic exchange-correlation" >
   <i type="string" name="GGA">--</i>
   <i type="int" name="VOSKOWN">     0</i>
   <i type="logical" name="LHFCALC"> F  </i>
   <i type="string" name="PRECFOCK"></i>
   <i type="logical" name="LSYMGRAD"> F  </i>
   <i type="logical" name="LHFONE"> F  </i>
   <i type="logical" name="LRHFCALC"> F  </i>
   <i type="logical" name="LTHOMAS"> F  </i>
   <i type="logical" name="LMODELHF"> F  </i>
   <i type="logical" name="LFOCKACE"> F  </i>
   <i name="ENCUT4O">     -1.00000000</i>
   <i type="int" name="EXXOEP">     0</i>
   <i type="int" name="FOURORBIT">     0</i>
   <i name="AEXX">      0.00000000</i>
   <i name="HFALPHA">      0.00000000</i>
   <i name="MCALPHA">      0.00000000</i>
   <i name="ALDAX">      1.00000000</i>
   <i name="AGGAX">      1.00000000</i>
   <i name="ALDAC">      1.00000000</i>
   <i name="AGGAC">      1.00000000</i>
   <i type="int" name="NKREDX">     1</i>
   <i type="int" name="NKREDY">     1</i>
   <i type="int" name="NKREDZ">     1</i>
   <i type="logical" name="SHIFTRED"> F  </i>
   <i type="logical" name="ODDONLY"> F  </i>
   <i type="logical" name="EVENONLY"> F  </i>
   <i type="int" name="LMAXFOCK">     0</i>
   <i type="int" name="NMAXFOCKAE">     0</i>
   <i type="logical" name="LFOCKAEDFT"> F  </i>
   <i name="HFSCREEN">      0.00000000</i>
   <i name="HFSCREENC">      0.00000000</i>
   <i type="int" name="NBANDSGWLOW">     0</i>
  </separator>
  <separator name="vdW DFT" >
   <i type="logical" name="LUSE_VDW"> F  </i>
   <i name="Zab_VDW">     -0.84910000</i>
   <i name="PARAM1">      0.12340000</i>
   <i name="PARAM2">      1.00000000</i>
   <i name="PARAM3">      0.00000000</i>
  </separator>
  <separator name="model GW" >
   <i type="int" name="MODEL_GW">     0</i>
   <i name="MODEL_EPS0">      5.24520088</i>
   <i name="MODEL_ALPHA">      1.00000000</i>
  </separator>
  <separator name="linear response parameters" >
   <i type="logical" name="LEPSILON"> F  </i>
   <i type="logical" name="LRPA"> F  </i>
   <i type="logical" name="LNABLA"> F  </i>
   <i type="logical" name="LVEL"> F  </i>
   <i name="CSHIFT">      0.10000000</i>
   <i name="OMEGAMAX">     -1.00000000</i>
   <i name="DEG_THRESHOLD">      0.00200000</i>
   <i name="RTIME">     -0.10000000</i>
   <i name="WPLASMAI">      0.00000000</i>
   <v name="DFIELD">      0.00000000      0.00000000      0.00000000</v>
   <v name="WPLASMA">      0.00000000      0.00000000      0.00000000      0.00000000      0.00000000      0.00000000      0.00000000      0.00000000      0.00000000</v>
  </separator>
  <separator name="orbital magnetization" >
   <i type="logical" name="NUCIND"> F  </i>
   <v name="MAGPOS">      0.00000000      0.00000000      0.00000000</v>
   <i type="logical" name="LNICSALL"> T  </i>
   <i type="logical" name="ORBITALMAG"> F  </i>
   <i type="logical" name="LMAGBLOCH"> F  </i>
   <i type="logical" name="LCHIMAG"> F  </i>
   <i type="logical" name="LGAUGE"> T  </i>
   <i type="int" name="MAGATOM">     0</i>
   <v name="MAGDIPOL">      0.00000000      0.00000000      0.00000000</v>
   <v name="AVECCONST">      0.00000000      0.00000000      0.00000000</v>
  </separator>
  <separator name="response functions" >
   <i type="logical" name="LFINITE_TEMPERATURE"> F  </i>
   <i type="logical" name="LADDER"> F  </i>
   <i type="logical" name="LRPAFORCE"> F  </i>
   <i type="logical" name="LFXC"> F  </i>
   <i type="logical" name="LHARTREE"> T  </i>
   <i type="int" name="IBSE">     0</i>
   <v type="int" name="KPOINT">    -1     0     0     0</v>
   <i type="logical" name="LTCTC"> F  </i>
   <i type="logical" name="LTCTE"> F  </i>
   <i type="logical" name="LTETE"> F  </i>
   <i type="logical" name="LTRIPLET"> F  </i>
   <i type="logical" name="LFXCEPS"> F  </i>
   <i type="logical" name="LFXHEG"> F  </i>
   <i type="int" name="NATURALO">     2</i>
   <i type="logical" name="LHOLEGF"> F  </i>
   <i type="logical" name="L2ORDER"> F  </i>
   <i type="logical" name="LDMP1"> F  </i>
   <i type="logical" name="LMP2LT"> F  </i>
   <i type="logical" name="LSMP2LT"> F  </i>
   <i type="logical" name="LGWLF"> F  </i>
   <i name="ENCUTGW">     -2.00000000</i>
   <i name="ENCUTGWSOFT">     -2.00000000</i>
   <i name="ENCUTLF">     -1.00000000</i>
   <i type="logical" name="LESF_SPLINES"> F  </i>
   <i type="int" name="LMAXMP2">    -1</i>
   <i name="SCISSOR">      0.00000000</i>
   <i type="int" name="NOMEGA">     0</i>
   <i type="int" name="NOMEGAR">     0</i>
   <i type="int" name="NBANDSGW">    -1</i>
   <i type="int" name="NBANDSO">    -1</i>
   <i type="int" name="NBANDSV">    -1</i>
   <i type="int" name="NELMGW">     1</i>
   <i type="int" name="NELMHF">     1</i>
   <i type="int" name="DIM">     3</i>
   <i type="int" name="IESPILON">     4</i>
   <i type="int" name="ANTIRES">     0</i>
   <i name="OMEGAMAX">    -30.00000000</i>
   <i name="OMEGAMIN">    -30.00000000</i>
   <i name="OMEGATL">   -200.00000000</i>
   <i type="int" name="OMEGAGRID">     0</i>
   <i name="CSHIFT">     -0.10000000</i>
   <i type="logical" name="LSELFENERGY"> F  </i>
   <i type="logical" name="LSPECTRAL"> F  </i>
   <i type="logical" name="LSPECTRALGW"> F  </i>
   <i type="logical" name="LSINGLES"> F  </i>
   <i type="logical" name="LFERMIGW"> F  </i>
   <i type="logical" name="ODDONLYGW"> F  </i>
   <i type="logical" name="EVENONLYGW"> F  </i>
   <i type="int" name="NKREDLFX">     1</i>
   <i type="int" name="NKREDLFY">     1</i>
   <i type="int" name="NKREDLFZ">     1</i>
   <i type="int" name="MAXMEM">  2800</i>
   <i type="int" name="TELESCOPE">     0</i>
   <i type="int" name="NTAUPAR">    -1</i>
   <i type="int" name="NOMEGAPAR">    -1</i>
   <i name="DAMP_NEWTON">      0.80000001</i>
   <i name="LAMBDA">      1.00000000</i>
  </separator>
  <separator name="External order field" >
   <i name="OFIELD_KAPPA">      0.00000000</i>
   <v name="OFIELD_K">      0.00000000      0.00000000      0.00000000</v>
   <i name="OFIELD_Q6_NEAR">      0.00000000</i>
   <i name="OFIELD_Q6_FAR">      0.00000000</i>
   <i name="OFIELD_A">      0.00000000</i>
  </separator>
  <separator name="optional k-points parameters" >
   <i type="int" name="KPOINTS_OPT_MODE">     1</i>
   <i type="logical" name="LKPOINTS_OPT"> F  </i>
  </separator>
  <separator name="solvation model" >
   <i type="logical" name="LSOL"> F  </i>
  </separator>
 </parameters>
 <atominfo>
  <atoms>      30 </atoms>
  <types>       2 </types>
  <array name="atoms" >
   <dimension dim="1">ion</dimension>
   <field type="string">element</field>
   <field type="int">atomtype</field>
   <set>
    <rc><c>Al</c><c>   1</c></rc>
    <rc><c>Al</c><c>   1</c></rc>
    <rc><c>Al</c><c>   1</c></rc>
    <rc><c>Al</c><c>   1</c></rc>
    <rc><c>Al</c><c>   1</c></rc>
    <rc><c>Al</c><c>   1</c></rc>
    <rc><c>Al</c><c>   1</c></rc>
    <rc><c>Al</c><c>   1</c></rc>
    <rc><c>Al</c><c>   1</c></rc>
    <rc><c>Al</c><c>   1</c></rc>
    <rc><c>Al</c><c>   1</c></rc>
    <rc><c>Al</c><c>   1</c></rc>
    <rc><c>O </c><c>   2</c></rc>
    <rc><c>O </c><c>   2</c></rc>
    <rc><c>O </c><c>   2</c></rc>
    <rc><c>O </c><c>   2</c></rc>
    <rc><c>O </c><c>   2</c></rc>
    <rc><c>O </c><c>   2</c></rc>
    <rc><c>O </c><c>   2</c></rc>
    <rc><c>O </c><c>   2</c></rc>
    <rc><c>O </c><c>   2</c></rc>
    <rc><c>O </c><c>   2</c></rc>
    <rc><c>O </c><c>   2</c></rc>
    <rc><c>O </c><c>   2</c></rc>
    <rc><c>O </c><c>   2</c></rc>
    <rc><c>O </c><c>   2</c></rc>
    <rc><c>O </c><c>   2</c></rc>
    <rc><c>O </c><c>   2</c></rc>
    <rc><c>O </c><c>   2</c></rc>
    <rc><c>O </c><c>   2</c></rc>
   </set>
  </array>
  <array name="atomtypes" >
   <dimension dim="1">type</dimension>
   <field type="int">atomspertype</field>
   <field type="string">element</field>
   <field>mass</field>
   <field>valence</field>
   <field type="string">pseudopotential</field>
   <set>
    <rc><c>  12</c><c>Al</c><c>     26.98200000</c><c>      3.00000000</c><c> PAW_PBE Al 04Jan2001                   </c></rc>
    <rc><c>  18</c><c>O </c><c>     16.00000000</c><c>      6.00000000</c><c> PAW_PBE O 08Apr2002                    </c></rc>
   </set>
  </array>
 </atominfo>
 <structure name="initialpos" >
  <crystal>
   <varray name="basis" >
    <v>       2.40251361      -4.16127564       0.00000000 </v>
    <v>       2.40251361       4.16127564       0.00000000 </v>
    <v>       0.00000000       0.00000000      13.11625325 </v>
   </varray>
   <i name="volume">    262.26004401 </i>
   <varray name="rec_basis" >
    <v>       0.20811537      -0.12015546       0.00000000 </v>
    <v>       0.20811537       0.12015546       0.00000000 </v>
    <v>       0.00000000       0.00000000       0.07624128 </v>
   </varray>
  </crystal>
  <varray name="positions" >
   <v>       0.33333333       0.66666667       0.81457067 </v>
   <v>       0.66666667       0.33333333       0.68542933 </v>
   <v>       0.00000000       0.00000000       0.64790400 </v>
   <v>       0.33333333       0.66666667       0.51876267 </v>
   <v>       0.00000000       0.00000000       0.14790400 </v>
   <v>       0.33333333       0.66666667       0.01876267 </v>
   <v>       0.66666667       0.33333333       0.98123733 </v>
   <v>       0.00000000       0.00000000       0.85209600 </v>
   <v>       0.66666667       0.33333333       0.48123733 </v>
   <v>       0.00000000       0.00000000       0.35209600 </v>
   <v>       0.33333333       0.66666667       0.31457067 </v>
   <v>       0.66666667       0.33333333       0.18542933 </v>
   <v>       0.36052117       0.33333333       0.58333333 </v>
   <v>       0.69385450       0.69385450       0.75000000 </v>
   <v>       0.97281217       0.63947883       0.58333333 </v>
   <v>       0.66666667       0.02718783       0.58333333 </v>
   <v>       0.00000000       0.30614550       0.75000000 </v>
   <v>       0.30614550       0.00000000       0.75000000 </v>
   <v>       0.02718783       0.66666667       0.91666667 </v>
   <v>       0.36052117       0.02718783       0.08333333 </v>
   <v>       0.63947883       0.97281217       0.91666667 </v>
   <v>       0.33333333       0.36052117       0.91666667 </v>
   <v>       0.66666667       0.63947883       0.08333333 </v>
   <v>       0.97281217       0.33333333       0.08333333 </v>
   <v>       0.69385450       0.00000000       0.25000000 </v>
   <v>       0.02718783       0.36052117       0.41666667 </v>
   <v>       0.30614550       0.30614550       0.25000000 </v>
   <v>       0.00000000       0.69385450       0.25000000 </v>
   <v>       0.33333333       0.97281217       0.41666667 </v>
   <v>       0.63947883       0.66666667       0.41666667 </v>
  </varray>
 </structure>
 <calculation>
  <scstep>
   <time name="dav">   45.33    6.63</time>
   <time name="total">   47.04    6.88</time>
   <energy>
    <i name="alphaZ">    221.47574156 </i>
    <i name="ewald">  -7125.17054963 </i>
    <i name="hartreedc">  -1923.49405505 </i>
    <i name="XCdc">    199.14116306 </i>
    <i name="pawpsdc">   4854.62230609 </i>
    <i name="pawaedc">  -4504.45338492 </i>
    <i name="eentropy">     -0.01906534 </i>
    <i name="bandstr">    672.89359655 </i>
    <i name="atom">   8424.91513549 </i>
    <i name="e_fr_energy">    819.91088781 </i>
    <i name="e_wo_entrp">    819.92995315 </i>
    <i name="e_0_energy">    819.92042048 </i>
   </energy>
  </scstep>
  <scstep>
   <time name="dav">   49.90    7.36</time>
   <time name="total">   49.91    7.37</time>
   <energy>
    <i name="e_fr_energy">   -197.12120089 </i>
    <i name="e_wo_entrp">   -197.12120089 </i>
    <i name="e_0_energy">   -197.12120089 </i>
   </energy>
  </scstep>
  <scstep>
   <time name="dav">   48.48    7.24</time>
   <time name="total">   48.49    7.24</time>
   <energy>
    <i name="e_fr_energy">   -247.79201054 </i>
    <i name="e_wo_entrp">   -247.79201054 </i>
    <i name="e_0_energy">   -247.79201054 </i>
   </energy>
  </scstep>
  <scstep>
   <time name="dav">   48.74    7.37</time>
   <time name="total">   48.75    7.37</time>
   <energy>
    <i name="e_fr_energy">   -248.36913303 </i>
    <i name="e_wo_entrp">   -248.36913303 </i>
    <i name="e_0_energy">   -248.36913303 </i>
   </energy>
  </scstep>
  <scstep>
   <time name="dav">   49.70    7.30</time>
   <time name="total">   50.72    7.61</time>
   <energy>
    <i name="e_fr_energy">   -248.37905691 </i>
    <i name="e_wo_entrp">   -248.37905691 </i>
    <i name="e_0_energy">   -248.37905691 </i>
   </energy>
  </scstep>
  <scstep>
   <time name="diag">    3.70    0.53</time>
   <time name="diis">    9.54    4.34</time>
   <time name="orth">    0.23    0.11</time>
   <time name="total">   16.06    5.54</time>
   <energy>
    <i name="e_fr_energy">   -223.73713730 </i>
    <i name="e_wo_entrp">   -223.73713730 </i>
    <i name="e_0_energy">   -223.73713730 </i>
   </energy>
  </scstep>
  <scstep>
   <time name="diag">    3.69    0.53</time>
   <time name="diis">   10.49    4.85</time>
   <time name="orth">    0.23    0.11</time>
   <time name="total">   16.88    6.04</time>
   <energy>
    <i name="e_fr_energy">   -224.33826399 </i>
    <i name="e_wo_entrp">   -224.33826399 </i>
    <i name="e_0_energy">   -224.33826399 </i>
   </energy>
  </scstep>
  <scstep>
   <time name="diag">    3.71    0.53</time>
   <time name="diis">   10.46    4.89</time>
   <time name="orth">    0.23    0.11</time>
   <time name="total">   16.87    6.08</time>
   <energy>
    <i name="e_fr_energy">   -224.42546137 </i>
    <i name="e_wo_entrp">   -224.42546137 </i>
    <i name="e_0_energy">   -224.42546137 </i>
   </energy>
  </scstep>
  <scstep>
   <time name="diag">    3.69    0.53</time>
   <time name="diis">   10.48    4.90</time>
   <time name="orth">    0.23    0.11</time>
   <time name="total">   17.10    6.13</time>
   <energy>
    <i name="e_fr_energy">   -224.43476273 </i>
    <i name="e_wo_entrp">   -224.43476273 </i>
    <i name="e_0_energy">   -224.43476273 </i>
   </energy>
  </scstep>
  <scstep>
   <time name="diag">    3.79    0.54</time>
   <time name="diis">   10.26    4.88</time>
   <time name="orth">    0.24    0.12</time>
   <time name="total">   16.82    6.10</time>
   <energy>
    <i name="e_fr_energy">   -224.44216289 </i>
    <i name="e_wo_entrp">   -224.44216289 </i>
    <i name="e_0_energy">   -224.44216289 </i>
   </energy>
  </scstep>
  <scstep>
   <time name="diag">    3.75    0.54</time>
   <time name="diis">   10.88    5.08</time>
   <time name="orth">    0.24    0.12</time>
   <time name="total">   17.35    6.29</time>
   <energy>
    <i name="e_fr_energy">   -224.44014040 </i>
    <i name="e_wo_entrp">   -224.44014040 </i>
    <i name="e_0_energy">   -224.44014040 </i>
   </energy>
  </scstep>
  <scstep>
   <time name="diag">    3.76    0.54</time>
   <time name="diis">   10.67    4.98</time>
   <time name="orth">    0.24    0.12</time>
   <time name="total">   17.26    6.20</time>
   <energy>
    <i name="e_fr_energy">   -224.44011008 </i>
    <i name="e_wo_entrp">   -224.44011008 </i>
    <i name="e_0_energy">   -224.44011008 </i>
   </energy>
  </scstep>
  <scstep>
   <time name="diag">    3.76    0.54</time>
   <time name="diis">   11.32    5.30</time>
   <time name="orth">    0.24    0.12</time>
   <time name="total">   17.80    6.51</time>
   <energy>
    <i name="e_fr_energy">   -224.44018160 </i>
    <i name="e_wo_entrp">   -224.44018160 </i>
    <i name="e_0_energy">   -224.44018160 </i>
   </energy>
  </scstep>
  <scstep>
   <time name="diag">    3.78    0.54</time>
   <time name="diis">   10.72    5.01</time>
   <time name="orth">    0.24    0.12</time>
   <time name="total">   17.23    6.22</time>
   <energy>
    <i name="e_fr_energy">   -224.44013343 </i>
    <i name="e_wo_entrp">   -224.44013343 </i>
    <i name="e_0_energy">   -224.44013343 </i>
   </energy>
  </scstep>
  <scstep>
   <time name="diag">    3.77    0.54</time>
   <time name="diis">   10.62    5.02</time>
   <time name="orth">    0.24    0.12</time>
   <time name="total">   17.26    6.25</time>
   <energy>
    <i name="e_fr_energy">   -224.44013232 </i>
    <i name="e_wo_entrp">   -224.44013232 </i>
    <i name="e_0_energy">   -224.44013232 </i>
   </energy>
  </scstep>
  <scstep>
   <time name="diag">    3.76    0.54</time>
   <time name="diis">   10.49    4.88</time>
   <time name="orth">    0.24    0.12</time>
   <time name="total">   16.99    6.09</time>
   <energy>
    <i name="e_fr_energy">   -224.44013357 </i>
    <i name="e_wo_entrp">   -224.44013357 </i>
    <i name="e_0_energy">   -224.44013357 </i>
   </energy>
  </scstep>
  <scstep>
   <time name="diag">    3.75    0.54</time>
   <time name="diis">    7.55    3.39</time>
   <time name="orth">    0.24    0.12</time>
   <time name="total">   13.14    4.28</time>
   <energy>
    <i name="alphaZ">    221.47574156 </i>
    <i name="ewald">  -7125.17054963 </i>
    <i name="hartreedc">  -2249.17463883 </i>
    <i name="XCdc">    223.38018050 </i>
    <i name="pawpsdc">   6054.07070766 </i>
    <i name="pawaedc">  -5709.40722764 </i>
    <i name="eentropy">     -0.00000000 </i>
    <i name="bandstr">    -64.52948293 </i>
    <i name="atom">   8424.91513549 </i>
    <i name="e_fr_energy">   -224.44013381 </i>
    <i name="e_wo_entrp">   -224.44013381 </i>
    <i name="e_0_energy">   -224.44013381 </i>
   </energy>
  </scstep>
  <structure>
   <crystal>
    <varray name="basis" >
     <v>       2.40251361      -4.16127564       0.00000000 </v>
     <v>       2.40251361       4.16127564       0.00000000 </v>
     <v>       0.00000000       0.00000000      13.11625325 </v>
    </varray>
    <i name="volume">    262.26004401 </i>
    <varray name="rec_basis" >
     <v>       0.20811537      -0.12015546       0.00000000 </v>
     <v>       0.20811537       0.12015546       0.00000000 </v>
     <v>       0.00000000       0.00000000       0.07624128 </v>
    </varray>
   </crystal>
   <varray name="positions" >
    <v>       0.33333333       0.66666667       0.81457067 </v>
    <v>       0.66666667       0.33333333       0.68542933 </v>
    <v>       0.00000000       0.00000000       0.64790400 </v>
    <v>       0.33333333       0.66666667       0.51876267 </v>
    <v>       0.00000000       0.00000000       0.14790400 </v>
    <v>       0.33333333       0.66666667       0.01876267 </v>
    <v>       0.66666667       0.33333333       0.98123733 </v>
    <v>       0.00000000       0.00000000       0.85209600 </v>
    <v>       0.66666667       0.33333333       0.48123733 </v>
    <v>       0.00000000       0.00000000       0.35209600 </v>
    <v>       0.33333333       0.66666667       0.31457067 </v>
    <v>       0.66666667       0.33333333       0.18542933 </v>
    <v>       0.36052117       0.33333333       0.58333333 </v>
    <v>       0.69385450       0.69385450       0.75000000 </v>
    <v>       0.97281217       0.63947883       0.58333333 </v>
    <v>       0.66666667       0.02718783       0.58333333 </v>
    <v>       0.00000000       0.30614550       0.75000000 </v>
    <v>       0.30614550       0.00000000       0.75000000 </v>
    <v>       0.02718783       0.66666667       0.91666667 </v>
    <v>       0.36052117       0.02718783       0.08333333 </v>
    <v>       0.63947883       0.97281217       0.91666667 </v>
    <v>       0.33333333       0.36052117       0.91666667 </v>
    <v>       0.66666667       0.63947883       0.08333333 </v>
    <v>       0.97281217       0.33333333       0.08333333 </v>
    <v>       0.69385450       0.00000000       0.25000000 </v>
    <v>       0.02718783       0.36052117       0.41666667 </v>
    <v>       0.30614550       0.30614550       0.25000000 </v>
    <v>       0.00000000       0.69385450       0.25000000 </v>
    <v>       0.33333333       0.97281217       0.41666667 </v>
    <v>       0.63947883       0.66666667       0.41666667 </v>
   </varray>
  </structure>
  <varray name="forces" >
   <v>      -0.00000000      -0.00000000      -0.01483184 </v>
   <v>      -0.00000000      -0.00000000       0.01483184 </v>
   <v>      -0.00000000      -0.00000000      -0.01483184 </v>
   <v>      -0.00000000      -0.00000000       0.01483184 </v>
   <v>      -0.00000000      -0.00000000      -0.01483184 </v>
   <v>      -0.00000000      -0.00000000       0.01483184 </v>
   <v>      -0.00000000      -0.00000000      -0.01483184 </v>
   <v>      -0.00000000      -0.00000000       0.01483184 </v>
   <v>      -0.00000000      -0.00000000      -0.01483184 </v>
   <v>      -0.00000000      -0.00000000       0.01483184 </v>
   <v>      -0.00000000      -0.00000000      -0.01483184 </v>
   <v>      -0.00000000      -0.00000000       0.01483184 </v>
   <v>      -0.00257507       0.00446016      -0.00000000 </v>
   <v>      -0.00515014      -0.00000000      -0.00000000 </v>
   <v>       0.00515014      -0.00000000       0.00000000 </v>
   <v>      -0.00257507      -0.00446016      -0.00000000 </v>
   <v>       0.00257507       0.00446016       0.00000000 </v>
   <v>       0.00257507      -0.00446016       0.00000000 </v>
   <v>      -0.00257507       0.00446016      -0.00000000 </v>
   <v>      -0.00515014      -0.00000000       0.00000000 </v>
   <v>       0.00515014      -0.00000000      -0.00000000 </v>
   <v>      -0.00257507      -0.00446016      -0.00000000 </v>
   <v>       0.00257507       0.00446016       0.00000000 </v>
   <v>       0.00257507      -0.00446016       0.00000000 </v>
   <v>      -0.00257507       0.00446016       0.00000000 </v>
   <v>      -0.00515014      -0.00000000      -0.00000000 </v>
   <v>       0.00515014      -0.00000000       0.00000000 </v>
   <v>      -0.00257507      -0.00446016       0.00000000 </v>
   <v>       0.00257507       0.00446016      -0.00000000 </v>
   <v>       0.00257507      -0.00446016      -0.00000000 </v>
  </varray>
  <varray name="stress" >
   <v>       3.37481030      -0.00000000       0.00000000 </v>
   <v>       0.00000000       3.37481030      -0.00000000 </v>
   <v>       0.00000000       0.00000000       2.51041413 </v>
  </varray>
  <energy>
   <i name="e_fr_energy">   -224.44013381 </i>
   <i name="e_wo_entrp">   -224.44013381 </i>
   <i name="e_0_energy">   -224.44013381 </i>
  </energy>
  <time name="totalsc">  475.22  118.27</time>
 </calculation>
 <calculation>
  <scstep>
   <time name="dav">   49.35    7.10</time>
   <time name="total">   52.71    7.64</time>
   <energy>
    <i name="alphaZ">    220.93677496 </i>
    <i name="ewald">  -7119.67621348 </i>
    <i name="hartreedc">  -2247.12414566 </i>
    <i name="XCdc">    222.91161552 </i>
    <i name="pawpsdc">   6054.07720475 </i>
    <i name="pawaedc">  -5709.41392145 </i>
    <i name="eentropy">     -0.00000000 </i>
    <i name="bandstr">    -71.07150342 </i>
    <i name="atom">   8424.91513549 </i>
    <i name="e_fr_energy">   -224.44505329 </i>
    <i name="e_wo_entrp">   -224.44505329 </i>
    <i name="e_0_energy">   -224.44505329 </i>
   </energy>
  </scstep>
  <scstep>
   <time name="diag">    3.78    0.54</time>
   <time name="diis">   10.64    5.07</time>
   <time name="orth">    0.24    0.12</time>
   <time name="total">   17.21    6.29</time>
   <energy>
    <i name="e_fr_energy">   -224.44029896 </i>
    <i name="e_wo_entrp">   -224.44029896 </i>
    <i name="e_0_energy">   -224.44029896 </i>
   </energy>
  </scstep>
  <scstep>
   <time name="diag">    3.77    0.54</time>
   <time name="diis">   10.71    5.00</time>
   <time name="orth">    0.24    0.12</time>
   <time name="total">   17.19    6.21</time>
   <energy>
    <i name="e_fr_energy">   -224.44034388 </i>
    <i name="e_wo_entrp">   -224.44034388 </i>
    <i name="e_0_energy">   -224.44034388 </i>
   </energy>
  </scstep>
  <scstep>
   <time name="diag">    3.75    0.54</time>
   <time name="diis">   10.83    5.06</time>
   <time name="orth">    0.24    0.12</time>
   <time name="total">   17.31    6.27</time>
   <energy>
    <i name="e_fr_energy">   -224.44030916 </i>
    <i name="e_wo_entrp">   -224.44030916 </i>
    <i name="e_0_energy">   -224.44030916 </i>
   </energy>
  </scstep>
  <scstep>
   <time name="diag">    3.79    0.54</time>
   <time name="diis">   10.85    5.07</time>
   <time name="orth">    0.24    0.12</time>
   <time name="total">   18.04    6.38</time>
   <energy>
    <i name="e_fr_energy">   -224.44030430 </i>
    <i name="e_wo_entrp">   -224.44030430 </i>
    <i name="e_0_energy">   -224.44030430 </i>
   </energy>
  </scstep>
  <scstep>
   <time name="diag">    3.76    0.54</time>
   <time name="diis">   10.44    4.86</time>
   <time name="orth">    0.23    0.11</time>
   <time name="total">   16.92    6.06</time>
   <energy>
    <i name="e_fr_energy">   -224.44030441 </i>
    <i name="e_wo_entrp">   -224.44030441 </i>
    <i name="e_0_energy">   -224.44030441 </i>
   </energy>
  </scstep>
  <scstep>
   <time name="diag">    3.76    0.54</time>
   <time name="diis">    9.94    4.63</time>
   <time name="orth">    0.24    0.12</time>
   <time name="total">   16.42    5.84</time>
   <energy>
    <i name="e_fr_energy">   -224.44030294 </i>
    <i name="e_wo_entrp">   -224.44030294 </i>
    <i name="e_0_energy">   -224.44030294 </i>
   </energy>
  </scstep>
  <scstep>
   <time name="diag">    3.79    0.55</time>
   <time name="diis">    6.93    3.07</time>
   <time name="orth">    0.24    0.12</time>
   <time name="total">   12.56    3.97</time>
   <energy>
    <i name="alphaZ">    220.93677496 </i>
    <i name="ewald">  -7119.67621348 </i>
    <i name="hartreedc">  -2251.22339347 </i>
    <i name="XCdc">    223.18328068 </i>
    <i name="pawpsdc">   6050.17584633 </i>
    <i name="pawaedc">  -5705.48800512 </i>
    <i name="eentropy">     -0.00000000 </i>
    <i name="bandstr">    -67.26372826 </i>
    <i name="atom">   8424.91513549 </i>
    <i name="e_fr_energy">   -224.44030286 </i>
    <i name="e_wo_entrp">   -224.44030286 </i>
    <i name="e_0_energy">   -224.44030286 </i>
   </energy>
  </scstep>
  <structure>
   <crystal>
    <varray name="basis" >
     <v>       2.40464787      -4.16497228       0.00000000 </v>
     <v>       2.40464787       4.16497228      -0.00000000 </v>
     <v>       0.00000000       0.00000000      13.12492060 </v>
    </varray>
    <i name="volume">    262.89981710 </i>
    <varray name="rec_basis" >
     <v>       0.20793065      -0.12004882       0.00000000 </v>
     <v>       0.20793065       0.12004882      -0.00000000 </v>
     <v>      -0.00000000       0.00000000       0.07619094 </v>
    </varray>
   </crystal>
   <varray name="positions" >
    <v>       0.33333333       0.66666667       0.81451611 </v>
    <v>       0.66666667       0.33333333       0.68548389 </v>
    <v>      -0.00000000      -0.00000000       0.64784945 </v>
    <v>       0.33333333       0.66666667       0.51881722 </v>
    <v>      -0.00000000      -0.00000000       0.14784945 </v>
    <v>       0.33333333       0.66666667       0.01881722 </v>
    <v>       0.66666667       0.33333333       0.98118278 </v>
    <v>      -0.00000000      -0.00000000       0.85215055 </v>
    <v>       0.66666667       0.33333333       0.48118278 </v>
    <v>      -0.00000000      -0.00000000       0.35215055 </v>
    <v>       0.33333333       0.66666667       0.31451611 </v>
    <v>       0.66666667       0.33333333       0.18548389 </v>
    <v>       0.36046946       0.33333333       0.58333333 </v>
    <v>       0.69380279       0.69380279       0.75000000 </v>
    <v>       0.97286387       0.63953054       0.58333333 </v>
    <v>       0.66666667       0.02713613       0.58333333 </v>
    <v>      -0.00000000       0.30619721       0.75000000 </v>
    <v>       0.30619721       0.00000000       0.75000000 </v>
    <v>       0.02713613       0.66666667       0.91666667 </v>
    <v>       0.36046946       0.02713613       0.08333333 </v>
    <v>       0.63953054       0.97286387       0.91666667 </v>
    <v>       0.33333333       0.36046946       0.91666667 </v>
    <v>       0.66666667       0.63953054       0.08333333 </v>
    <v>       0.97286387       0.33333333       0.08333333 </v>
    <v>       0.69380279      -0.00000000       0.25000000 </v>
    <v>       0.02713613       0.36046946       0.41666667 </v>
    <v>       0.30619721       0.30619721       0.25000000 </v>
    <v>      -0.00000000       0.69380279       0.25000000 </v>
    <v>       0.33333333       0.97286387       0.41666667 </v>
    <v>       0.63953054       0.66666667       0.41666667 </v>
   </varray>
  </structure>
  <varray name="forces" >
   <v>      -0.00000000       0.00000000      -0.00480222 </v>
   <v>      -0.00000000       0.00000000       0.00480222 </v>
   <v>      -0.00000000       0.00000000      -0.00480222 </v>
   <v>      -0.00000000       0.00000000       0.00480222 </v>
   <v>      -0.00000000       0.00000000      -0.00480222 </v>
   <v>      -0.00000000       0.00000000       0.00480222 </v>
   <v>      -0.00000000       0.00000000      -0.00480222 </v>
   <v>      -0.00000000       0.00000000       0.00480222 </v>
   <v>      -0.00000000       0.00000000      -0.00480222 </v>
   <v>      -0.00000000       0.00000000       0.00480222 </v>
   <v>      -0.00000000       0.00000000      -0.00480222 </v>
   <v>      -0.00000000       0.00000000       0.00480222 </v>
   <v>       0.00266479      -0.00461554       0.00000000 </v>
   <v>       0.00532957       0.00000000       0.00000000 </v>
   <v>      -0.00532957       0.00000000       0.00000000 </v>
   <v>       0.00266479       0.00461554       0.00000000 </v>
   <v>      -0.00266479      -0.00461554       0.00000000 </v>
   <v>      -0.00266479       0.00461554       0.00000000 </v>
   <v>       0.00266479      -0.00461554       0.00000000 </v>
   <v>       0.00532957       0.00000000       0.00000000 </v>
   <v>      -0.00532957       0.00000000       0.00000000 </v>
   <v>       0.00266479       0.00461554       0.00000000 </v>
   <v>      -0.00266479      -0.00461554       0.00000000 </v>
   <v>      -0.00266479       0.00461554       0.00000000 </v>
   <v>       0.00266479      -0.00461554       0.00000000 </v>
   <v>       0.00532957       0.00000000       0.00000000 </v>
   <v>      -0.00532957       0.00000000       0.00000000 </v>
   <v>       0.00266479       0.00461554       0.00000000 </v>
   <v>      -0.00266479      -0.00461554       0.00000000 </v>
   <v>      -0.00266479       0.00461554       0.00000000 </v>
  </varray>
  <varray name="stress" >
   <v>      -2.67258956      -0.00000000       0.00000000 </v>
   <v>      -0.00000000      -2.67258956      -0.00000000 </v>
   <v>      -0.00000000      -0.00000000      -2.70791394 </v>
  </varray>
  <energy>
   <i name="e_fr_energy">   -224.44030286 </i>
   <i name="e_wo_entrp">   -224.44030286 </i>
   <i name="e_0_energy">   -224.44030286 </i>
  </energy>
  <time name="totalsc">  197.24   58.60</time>
 </calculation>
 <calculation>
  <scstep>
   <time name="dav">   49.51    7.14</time>
   <time name="total">   52.48    7.67</time>
   <energy>
    <i name="alphaZ">    221.16950166 </i>
    <i name="ewald">  -7122.05003325 </i>
    <i name="hartreedc">  -2252.11274781 </i>
    <i name="XCdc">    223.38591485 </i>
    <i name="pawpsdc">   6050.18610504 </i>
    <i name="pawaedc">  -5705.49829198 </i>
    <i name="eentropy">     -0.00000000 </i>
    <i name="bandstr">    -64.43699249 </i>
    <i name="atom">   8424.91513549 </i>
    <i name="e_fr_energy">   -224.44140849 </i>
    <i name="e_wo_entrp">   -224.44140849 </i>
    <i name="e_0_energy">   -224.44140849 </i>
   </energy>
  </scstep>
  <scstep>
   <time name="diag">    3.45    0.49</time>
   <time name="diis">    9.74    4.45</time>
   <time name="orth">    0.23    0.11</time>
   <time name="total">   15.91    5.60</time>
   <energy>
    <i name="e_fr_energy">   -224.44052621 </i>
    <i name="e_wo_entrp">   -224.44052621 </i>
    <i name="e_0_energy">   -224.44052621 </i>
   </energy>
  </scstep>
  <scstep>
   <time name="diag">    3.57    0.52</time>
   <time name="diis">    9.04    4.15</time>
   <time name="orth">    0.23    0.11</time>
   <time name="total">   15.29    5.31</time>
   <energy>
    <i name="e_fr_energy">   -224.44053616 </i>
    <i name="e_wo_entrp">   -224.44053616 </i>
    <i name="e_0_energy">   -224.44053616 </i>
   </energy>
  </scstep>
  <scstep>
   <time name="diag">    3.43    0.49</time>
   <time name="diis">   10.06    4.60</time>
   <time name="orth">    0.23    0.11</time>
   <time name="total">   16.21    5.76</time>
   <energy>
    <i name="e_fr_energy">   -224.44052866 </i>
    <i name="e_wo_entrp">   -224.44052866 </i>
    <i name="e_0_energy">   -224.44052866 </i>
   </energy>
  </scstep>
  <scstep>
   <time name="diag">    3.46    0.50</time>
   <time name="diis">    7.18    3.16</time>
   <time name="orth">    0.23    0.11</time>
   <time name="total">   12.47    4.01</time>
   <energy>
    <i name="alphaZ">    221.16950166 </i>
    <i name="ewald">  -7122.05003325 </i>
    <i name="hartreedc">  -2250.35106090 </i>
    <i name="XCdc">    223.26900624 </i>
    <i name="pawpsdc">   6051.98735569 </i>
    <i name="pawaedc">  -5707.31278778 </i>
    <i name="eentropy">     -0.00000000 </i>
    <i name="bandstr">    -66.06764570 </i>
    <i name="atom">   8424.91513549 </i>
    <i name="e_fr_energy">   -224.44052854 </i>
    <i name="e_wo_entrp">   -224.44052854 </i>
    <i name="e_0_energy">   -224.44052854 </i>
   </energy>
  </scstep>
  <structure>
   <crystal>
    <varray name="basis" >
     <v>       2.40372544      -4.16337458       0.00000000 </v>
     <v>       2.40372544       4.16337458      -0.00000000 </v>
     <v>       0.00000000       0.00000000      13.12117456 </v>
    </varray>
    <i name="volume">    262.62317947 </i>
    <varray name="rec_basis" >
     <v>       0.20801045      -0.12009489       0.00000000 </v>
     <v>       0.20801045       0.12009489      -0.00000000 </v>
     <v>      -0.00000000       0.00000000       0.07621269 </v>
    </varray>
   </crystal>
   <varray name="positions" >
    <v>       0.33333333       0.66666667       0.81453968 </v>
    <v>       0.66666667       0.33333333       0.68546032 </v>
    <v>      -0.00000000      -0.00000000       0.64787301 </v>
    <v>       0.33333333       0.66666667       0.51879366 </v>
    <v>      -0.00000000      -0.00000000       0.14787301 </v>
    <v>       0.33333333       0.66666667       0.01879366 </v>
    <v>       0.66666667       0.33333333       0.98120634 </v>
    <v>      -0.00000000      -0.00000000       0.85212699 </v>
    <v>       0.66666667       0.33333333       0.48120634 </v>
    <v>      -0.00000000      -0.00000000       0.35212699 </v>
    <v>       0.33333333       0.66666667       0.31453968 </v>
    <v>       0.66666667       0.33333333       0.18546032 </v>
    <v>       0.36049179       0.33333333       0.58333333 </v>
    <v>       0.69382512       0.69382512       0.75000000 </v>
    <v>       0.97284155       0.63950821       0.58333333 </v>
    <v>       0.66666667       0.02715845       0.58333333 </v>
    <v>      -0.00000000       0.30617488       0.75000000 </v>
    <v>       0.30617488       0.00000000       0.75000000 </v>
    <v>       0.02715845       0.66666667       0.91666667 </v>
    <v>       0.36049179       0.02715845       0.08333333 </v>
    <v>       0.63950821       0.97284155       0.91666667 </v>
    <v>       0.33333333       0.36049179       0.91666667 </v>
    <v>       0.66666667       0.63950821       0.08333333 </v>
    <v>       0.97284155       0.33333333       0.08333333 </v>
    <v>       0.69382512      -0.00000000       0.25000000 </v>
    <v>       0.02715845       0.36049179       0.41666667 </v>
    <v>       0.30617488       0.30617488       0.25000000 </v>
    <v>      -0.00000000       0.69382512       0.25000000 </v>
    <v>       0.33333333       0.97284155       0.41666667 </v>
    <v>       0.63950821       0.66666667       0.41666667 </v>
   </varray>
  </structure>
  <varray name="forces" >
   <v>      -0.00000000      -0.00000000      -0.00911772 </v>
   <v>      -0.00000000      -0.00000000       0.00911772 </v>
   <v>      -0.00000000      -0.00000000      -0.00911772 </v>
   <v>      -0.00000000      -0.00000000       0.00911772 </v>
   <v>      -0.00000000      -0.00000000      -0.00911772 </v>
   <v>      -0.00000000      -0.00000000       0.00911772 </v>
   <v>      -0.00000000      -0.00000000      -0.00911772 </v>
   <v>      -0.00000000      -0.00000000       0.00911772 </v>
   <v>      -0.00000000      -0.00000000      -0.00911772 </v>
   <v>      -0.00000000      -0.00000000       0.00911772 </v>
   <v>      -0.00000000      -0.00000000      -0.00911772 </v>
   <v>      -0.00000000      -0.00000000       0.00911772 </v>
   <v>       0.00053167      -0.00092087      -0.00000000 </v>
   <v>       0.00106333       0.00000000      -0.00000000 </v>
   <v>      -0.00106333       0.00000000      -0.00000000 </v>
   <v>       0.00053167       0.00092087      -0.00000000 </v>
   <v>      -0.00053167      -0.00092087      -0.00000000 </v>
   <v>      -0.00053167       0.00092087      -0.00000000 </v>
   <v>       0.00053167      -0.00092087      -0.00000000 </v>
   <v>       0.00106333      -0.00000000      -0.00000000 </v>
   <v>      -0.00106333      -0.00000000      -0.00000000 </v>
   <v>       0.00053167       0.00092087      -0.00000000 </v>
   <v>      -0.00053167      -0.00092087      -0.00000000 </v>
   <v>      -0.00053167       0.00092087      -0.00000000 </v>
   <v>       0.00053167      -0.00092087      -0.00000000 </v>
   <v>       0.00106333      -0.00000000      -0.00000000 </v>
   <v>      -0.00106333       0.00000000      -0.00000000 </v>
   <v>       0.00053167       0.00092087      -0.00000000 </v>
   <v>      -0.00053167      -0.00092087      -0.00000000 </v>
   <v>      -0.00053167       0.00092087      -0.00000000 </v>
  </varray>
  <varray name="stress" >
   <v>      -0.24466848       0.00000000      -0.00000000 </v>
   <v>       0.00000000      -0.24466848       0.00000000 </v>
   <v>       0.00000000       0.00000000      -0.61662428 </v>
  </varray>
  <energy>
   <i name="e_fr_energy">   -224.44052854 </i>
   <i name="e_wo_entrp">   -224.44052854 </i>
   <i name="e_0_energy">   -224.44052854 </i>
  </energy>
  <time name="totalsc">  136.24   37.00</time>
  <eigenvalues>
   <array>
    <dimension dim="1">band</dimension>
    <dimension dim="2">kpoint</dimension>
    <dimension dim="3">spin</dimension>
    <field>eigene</field>
    <field>occ</field>
    <set>
     <set comment="spin 1">
      <set comment="kpoint 1">
       <r>  -13.2113    1.0000 </r>
       <r>  -12.7599    1.0000 </r>
       <r>  -12.7599    1.0000 </r>
       <r>  -11.6766    1.0000 </r>
       <r>  -11.6766    1.0000 </r>
       <r>  -10.9886    1.0000 </r>
       <r>  -10.7249    1.0000 </r>
       <r>  -10.7249    1.0000 </r>
       <r>  -10.6616    1.0000 </r>
       <r>  -10.6616    1.0000 </r>
       <r>  -10.6616    1.0000 </r>
       <r>  -10.6616    1.0000 </r>
       <r>  -10.5080    1.0000 </r>
       <r>  -10.5080    1.0000 </r>
       <r>  -10.5080    1.0000 </r>
       <r>  -10.5080    1.0000 </r>
       <r>  -10.4179    1.0000 </r>
       <r>  -10.4179    1.0000 </r>
       <r>   -0.9456    1.0000 </r>
       <r>    0.0178    1.0000 </r>
       <r>    0.0656    1.0000 </r>
       <r>    0.0656    1.0000 </r>
       <r>    0.4155    1.0000 </r>
       <r>    0.4155    1.0000 </r>
       <r>    0.4906    1.0000 </r>
       <r>    0.4906    1.0000 </r>
       <r>    0.7413    1.0000 </r>
       <r>    0.7413    1.0000 </r>
       <r>    0.8865    1.0000 </r>
       <r>    0.8865    1.0000 </r>
       <r>    0.8865    1.0000 </r>
       <r>    0.8865    1.0000 </r>
       <r>    1.5068    1.0000 </r>
       <r>    1.6428    1.0000 </r>
       <r>    1.6428    1.0000 </r>
       <r>    2.0455    1.0000 </r>
       <r>    2.0455    1.0000 </r>
       <r>    2.0455    1.0000 </r>
       <r>    2.0455    1.0000 </r>
       <r>    2.6246    1.0000 </r>
       <r>    2.8905    1.0000 </r>
       <r>    2.8905    1.0000 </r>
       <r>    2.9069    1.0000 </r>
       <r>    3.1847    1.0000 </r>
       <r>    3.1847    1.0000 </r>
       <r>    3.4018    1.0000 </r>
       <r>    3.4018    1.0000 </r>
       <r>    3.4018    1.0000 </r>
       <r>    3.4018    1.0000 </r>
       <r>    4.2080    1.0000 </r>
       <r>    4.2080    1.0000 </r>
       <r>    4.4303    1.0000 </r>
       <r>    4.4303    1.0000 </r>
       <r>    4.5080    1.0000 </r>
       <r>    4.5080    1.0000 </r>
       <r>    4.5080    1.0000 </r>
       <r>    4.5080    1.0000 </r>
       <r>    4.5726    1.0000 </r>
       <r>    4.5726    1.0000 </r>
       <r>    5.3410    1.0000 </r>
       <r>    5.3410    1.0000 </r>
       <r>    5.3410    1.0000 </r>
       <r>    5.3410    1.0000 </r>
       <r>    5.3514    1.0000 </r>
       <r>    5.3514    1.0000 </r>
       <r>    5.6351    1.0000 </r>
       <r>    5.6351    1.0000 </r>
       <r>    5.6351    1.0000 </r>
       <r>    5.6351    1.0000 </r>
       <r>    5.7768    1.0000 </r>
       <r>    5.7768    1.0000 </r>
       <r>    5.8077    1.0000 </r>
       <r>   11.6636    0.0000 </r>
       <r>   13.2073    0.0000 </r>
       <r>   13.2073    0.0000 </r>
       <r>   14.6697    0.0000 </r>
       <r>   14.6697    0.0000 </r>
       <r>   14.7154    0.0000 </r>
       <r>   16.1767    0.0000 </r>
       <r>   16.1767    0.0000 </r>
       <r>   16.1815    0.0000 </r>
       <r>   17.0788    0.0000 </r>
       <r>   17.0790    0.0000 </r>
       <r>   17.1469    0.0000 </r>
       <r>   17.1471    0.0000 </r>
       <r>   17.2484    0.0000 </r>
       <r>   17.7352    0.0000 </r>
       <r>   17.7452    0.0000 </r>
      </set>
      <set comment="kpoint 2">
       <r>  -13.1911    1.0000 </r>
       <r>  -12.7418    1.0000 </r>
       <r>  -12.7417    1.0000 </r>
       <r>  -11.6655    1.0000 </r>
       <r>  -11.6648    1.0000 </r>
       <r>  -10.9894    1.0000 </r>
       <r>  -10.7468    1.0000 </r>
       <r>  -10.7390    1.0000 </r>
       <r>  -10.7355    1.0000 </r>
       <r>  -10.7352    1.0000 </r>
       <r>  -10.6125    1.0000 </r>
       <r>  -10.6045    1.0000 </r>
       <r>  -10.5844    1.0000 </r>
       <r>  -10.5772    1.0000 </r>
       <r>  -10.4525    1.0000 </r>
       <r>  -10.4499    1.0000 </r>
       <r>  -10.4238    1.0000 </r>
       <r>  -10.4238    1.0000 </r>
       <r>   -0.9264    1.0000 </r>
       <r>   -0.0703    1.0000 </r>
       <r>    0.0568    1.0000 </r>
       <r>    0.0687    1.0000 </r>
       <r>    0.3862    1.0000 </r>
       <r>    0.4173    1.0000 </r>
       <r>    0.4288    1.0000 </r>
       <r>    0.5413    1.0000 </r>
       <r>    0.5612    1.0000 </r>
       <r>    0.6171    1.0000 </r>
       <r>    0.9323    1.0000 </r>
       <r>    1.0268    1.0000 </r>
       <r>    1.0553    1.0000 </r>
       <r>    1.1007    1.0000 </r>
       <r>    1.2889    1.0000 </r>
       <r>    1.5978    1.0000 </r>
       <r>    1.9181    1.0000 </r>
       <r>    1.9668    1.0000 </r>
       <r>    1.9895    1.0000 </r>
       <r>    2.0911    1.0000 </r>
       <r>    2.1279    1.0000 </r>
       <r>    2.7266    1.0000 </r>
       <r>    2.9431    1.0000 </r>
       <r>    2.9614    1.0000 </r>
       <r>    2.9702    1.0000 </r>
       <r>    3.1167    1.0000 </r>
       <r>    3.1792    1.0000 </r>
       <r>    3.2218    1.0000 </r>
       <r>    3.3101    1.0000 </r>
       <r>    3.5921    1.0000 </r>
       <r>    3.6426    1.0000 </r>
       <r>    4.1543    1.0000 </r>
       <r>    4.1838    1.0000 </r>
       <r>    4.3730    1.0000 </r>
       <r>    4.3869    1.0000 </r>
       <r>    4.3946    1.0000 </r>
       <r>    4.4513    1.0000 </r>
       <r>    4.5700    1.0000 </r>
       <r>    4.5849    1.0000 </r>
       <r>    4.5927    1.0000 </r>
       <r>    4.6225    1.0000 </r>
       <r>    5.2608    1.0000 </r>
       <r>    5.2930    1.0000 </r>
       <r>    5.3021    1.0000 </r>
       <r>    5.3166    1.0000 </r>
       <r>    5.3172    1.0000 </r>
       <r>    5.3524    1.0000 </r>
       <r>    5.5851    1.0000 </r>
       <r>    5.6048    1.0000 </r>
       <r>    5.6153    1.0000 </r>
       <r>    5.6292    1.0000 </r>
       <r>    5.6995    1.0000 </r>
       <r>    5.7798    1.0000 </r>
       <r>    5.8027    1.0000 </r>
       <r>   11.7671    0.0000 </r>
       <r>   13.2783    0.0000 </r>
       <r>   13.2783    0.0000 </r>
       <r>   14.7477    0.0000 </r>
       <r>   14.7477    0.0000 </r>
       <r>   14.8010    0.0000 </r>
       <r>   16.0770    0.0000 </r>
       <r>   16.2028    0.0000 </r>
       <r>   16.2078    0.0000 </r>
       <r>   16.9410    0.0000 </r>
       <r>   17.0182    0.0000 </r>
       <r>   17.0277    0.0000 </r>
       <r>   17.1680    0.0000 </r>
       <r>   17.1983    0.0000 </r>
       <r>   17.4252    0.0000 </r>
       <r>   17.6558    0.0000 </r>
      </set>
      <set comment="kpoint 3">
       <r>  -13.1311    1.0000 </r>
       <r>  -12.6884    1.0000 </r>
       <r>  -12.6872    1.0000 </r>
       <r>  -11.6359    1.0000 </r>
       <r>  -11.6293    1.0000 </r>
       <r>  -11.0043    1.0000 </r>
       <r>  -10.8661    1.0000 </r>
       <r>  -10.8167    1.0000 </r>
       <r>  -10.7680    1.0000 </r>
       <r>  -10.7640    1.0000 </r>
       <r>  -10.6865    1.0000 </r>
       <r>  -10.6498    1.0000 </r>
       <r>  -10.5967    1.0000 </r>
       <r>  -10.5701    1.0000 </r>
       <r>  -10.4436    1.0000 </r>
       <r>  -10.4401    1.0000 </r>
       <r>  -10.4118    1.0000 </r>
       <r>  -10.4079    1.0000 </r>
       <r>   -0.8701    1.0000 </r>
       <r>   -0.1918    1.0000 </r>
       <r>    0.0150    1.0000 </r>
       <r>    0.0961    1.0000 </r>
       <r>    0.2896    1.0000 </r>
       <r>    0.3102    1.0000 </r>
       <r>    0.3134    1.0000 </r>
       <r>    0.3321    1.0000 </r>
       <r>    0.5225    1.0000 </r>
       <r>    0.8493    1.0000 </r>
       <r>    1.0767    1.0000 </r>
       <r>    1.0992    1.0000 </r>
       <r>    1.1975    1.0000 </r>
       <r>    1.3031    1.0000 </r>
       <r>    1.3093    1.0000 </r>
       <r>    1.5168    1.0000 </r>
       <r>    1.9492    1.0000 </r>
       <r>    1.9925    1.0000 </r>
       <r>    2.1216    1.0000 </r>
       <r>    2.2306    1.0000 </r>
       <r>    2.2939    1.0000 </r>
       <r>    2.8629    1.0000 </r>
       <r>    2.9183    1.0000 </r>
       <r>    2.9770    1.0000 </r>
       <r>    3.1081    1.0000 </r>
       <r>    3.1636    1.0000 </r>
       <r>    3.1674    1.0000 </r>
       <r>    3.3417    1.0000 </r>
       <r>    3.4448    1.0000 </r>
       <r>    3.7082    1.0000 </r>
       <r>    3.9009    1.0000 </r>
       <r>    3.9940    1.0000 </r>
       <r>    4.1549    1.0000 </r>
       <r>    4.2485    1.0000 </r>
       <r>    4.2624    1.0000 </r>
       <r>    4.2837    1.0000 </r>
       <r>    4.4642    1.0000 </r>
       <r>    4.5167    1.0000 </r>
       <r>    4.6079    1.0000 </r>
       <r>    4.6087    1.0000 </r>
       <r>    4.7410    1.0000 </r>
       <r>    5.0892    1.0000 </r>
       <r>    5.1606    1.0000 </r>
       <r>    5.1930    1.0000 </r>
       <r>    5.1991    1.0000 </r>
       <r>    5.2249    1.0000 </r>
       <r>    5.3386    1.0000 </r>
       <r>    5.4722    1.0000 </r>
       <r>    5.5274    1.0000 </r>
       <r>    5.5483    1.0000 </r>
       <r>    5.5717    1.0000 </r>
       <r>    5.5900    1.0000 </r>
       <r>    5.7759    1.0000 </r>
       <r>    5.7862    1.0000 </r>
       <r>   12.0536    0.0000 </r>
       <r>   13.4774    0.0000 </r>
       <r>   13.4779    0.0000 </r>
       <r>   14.9677    0.0000 </r>
       <r>   14.9680    0.0000 </r>
       <r>   15.0426    0.0000 </r>
       <r>   15.8593    0.0000 </r>
       <r>   16.2635    0.0000 </r>
       <r>   16.3022    0.0000 </r>
       <r>   16.5281    0.0000 </r>
       <r>   16.8122    0.0000 </r>
       <r>   16.8533    0.0000 </r>
       <r>   17.0366    0.0000 </r>
       <r>   17.0713    0.0000 </r>
       <r>   17.2457    0.0000 </r>
       <r>   17.4642    0.0000 </r>
      </set>
      <set comment="kpoint 4">
       <r>  -13.0325    1.0000 </r>
       <r>  -12.6020    1.0000 </r>
       <r>  -12.5977    1.0000 </r>
       <r>  -11.6009    1.0000 </r>
       <r>  -11.5716    1.0000 </r>
       <r>  -11.0682    1.0000 </r>
       <r>  -11.0052    1.0000 </r>
       <r>  -10.9010    1.0000 </r>
       <r>  -10.8125    1.0000 </r>
       <r>  -10.8027    1.0000 </r>
       <r>  -10.7747    1.0000 </r>
       <r>  -10.7199    1.0000 </r>
       <r>  -10.6111    1.0000 </r>
       <r>  -10.5575    1.0000 </r>
       <r>  -10.4822    1.0000 </r>
       <r>  -10.4638    1.0000 </r>
       <r>  -10.3853    1.0000 </r>
       <r>  -10.3827    1.0000 </r>
       <r>   -0.7844    1.0000 </r>
       <r>   -0.2629    1.0000 </r>
       <r>   -0.0507    1.0000 </r>
       <r>    0.0610    1.0000 </r>
       <r>    0.1311    1.0000 </r>
       <r>    0.2254    1.0000 </r>
       <r>    0.2400    1.0000 </r>
       <r>    0.2864    1.0000 </r>
       <r>    0.5161    1.0000 </r>
       <r>    0.9272    1.0000 </r>
       <r>    1.1789    1.0000 </r>
       <r>    1.2782    1.0000 </r>
       <r>    1.2811    1.0000 </r>
       <r>    1.3857    1.0000 </r>
       <r>    1.4740    1.0000 </r>
       <r>    1.5592    1.0000 </r>
       <r>    1.9693    1.0000 </r>
       <r>    2.0764    1.0000 </r>
       <r>    2.2339    1.0000 </r>
       <r>    2.3778    1.0000 </r>
       <r>    2.6924    1.0000 </r>
       <r>    2.7350    1.0000 </r>
       <r>    2.7390    1.0000 </r>
       <r>    3.2955    1.0000 </r>
       <r>    3.3024    1.0000 </r>
       <r>    3.3183    1.0000 </r>
       <r>    3.3206    1.0000 </r>
       <r>    3.4952    1.0000 </r>
       <r>    3.6090    1.0000 </r>
       <r>    3.7774    1.0000 </r>
       <r>    3.7914    1.0000 </r>
       <r>    4.0921    1.0000 </r>
       <r>    4.1255    1.0000 </r>
       <r>    4.1509    1.0000 </r>
       <r>    4.1587    1.0000 </r>
       <r>    4.1595    1.0000 </r>
       <r>    4.3874    1.0000 </r>
       <r>    4.4727    1.0000 </r>
       <r>    4.5657    1.0000 </r>
       <r>    4.5953    1.0000 </r>
       <r>    4.8271    1.0000 </r>
       <r>    4.8367    1.0000 </r>
       <r>    4.8611    1.0000 </r>
       <r>    5.0536    1.0000 </r>
       <r>    5.1108    1.0000 </r>
       <r>    5.1426    1.0000 </r>
       <r>    5.3038    1.0000 </r>
       <r>    5.3585    1.0000 </r>
       <r>    5.4528    1.0000 </r>
       <r>    5.4542    1.0000 </r>
       <r>    5.4986    1.0000 </r>
       <r>    5.5172    1.0000 </r>
       <r>    5.7532    1.0000 </r>
       <r>    5.7545    1.0000 </r>
       <r>   12.4704    0.0000 </r>
       <r>   13.7702    0.0000 </r>
       <r>   13.7721    0.0000 </r>
       <r>   15.2899    0.0000 </r>
       <r>   15.2911    0.0000 </r>
       <r>   15.3974    0.0000 </r>
       <r>   15.6094    0.0000 </r>
       <r>   16.0995    0.0000 </r>
       <r>   16.3101    0.0000 </r>
       <r>   16.4308    0.0000 </r>
       <r>   16.5228    0.0000 </r>
       <r>   16.7022    0.0000 </r>
       <r>   16.7430    0.0000 </r>
       <r>   16.8723    0.0000 </r>
       <r>   17.0485    0.0000 </r>
       <r>   17.1630    0.0000 </r>
      </set>
      <set comment="kpoint 5">
       <r>  -12.8981    1.0000 </r>
       <r>  -12.4872    1.0000 </r>
       <r>  -12.4758    1.0000 </r>
       <r>  -11.5990    1.0000 </r>
       <r>  -11.4957    1.0000 </r>
       <r>  -11.1938    1.0000 </r>
       <r>  -11.1214    1.0000 </r>
       <r>  -11.0057    1.0000 </r>
       <r>  -10.9343    1.0000 </r>
       <r>  -10.8433    1.0000 </r>
       <r>  -10.7830    1.0000 </r>
       <r>  -10.7430    1.0000 </r>
       <r>  -10.6518    1.0000 </r>
       <r>  -10.5592    1.0000 </r>
       <r>  -10.5431    1.0000 </r>
       <r>  -10.4904    1.0000 </r>
       <r>  -10.3767    1.0000 </r>
       <r>  -10.3714    1.0000 </r>
       <r>   -0.6963    1.0000 </r>
       <r>   -0.2494    1.0000 </r>
       <r>   -0.1364    1.0000 </r>
       <r>   -0.1104    1.0000 </r>
       <r>    0.0886    1.0000 </r>
       <r>    0.1413    1.0000 </r>
       <r>    0.2005    1.0000 </r>
       <r>    0.3908    1.0000 </r>
       <r>    0.6022    1.0000 </r>
       <r>    0.8466    1.0000 </r>
       <r>    1.3332    1.0000 </r>
       <r>    1.3653    1.0000 </r>
       <r>    1.4338    1.0000 </r>
       <r>    1.4592    1.0000 </r>
       <r>    1.5522    1.0000 </r>
       <r>    1.7671    1.0000 </r>
       <r>    1.8024    1.0000 </r>
       <r>    2.2027    1.0000 </r>
       <r>    2.3987    1.0000 </r>
       <r>    2.5871    1.0000 </r>
       <r>    2.6012    1.0000 </r>
       <r>    2.8881    1.0000 </r>
       <r>    3.0749    1.0000 </r>
       <r>    3.2679    1.0000 </r>
       <r>    3.3487    1.0000 </r>
       <r>    3.4632    1.0000 </r>
       <r>    3.5946    1.0000 </r>
       <r>    3.6190    1.0000 </r>
       <r>    3.6373    1.0000 </r>
       <r>    3.6721    1.0000 </r>
       <r>    3.9053    1.0000 </r>
       <r>    3.9289    1.0000 </r>
       <r>    3.9700    1.0000 </r>
       <r>    4.1641    1.0000 </r>
       <r>    4.1974    1.0000 </r>
       <r>    4.2460    1.0000 </r>
       <r>    4.3900    1.0000 </r>
       <r>    4.4075    1.0000 </r>
       <r>    4.4177    1.0000 </r>
       <r>    4.5243    1.0000 </r>
       <r>    4.5735    1.0000 </r>
       <r>    4.6258    1.0000 </r>
       <r>    4.8726    1.0000 </r>
       <r>    4.9491    1.0000 </r>
       <r>    5.0398    1.0000 </r>
       <r>    5.1145    1.0000 </r>
       <r>    5.2237    1.0000 </r>
       <r>    5.3479    1.0000 </r>
       <r>    5.3954    1.0000 </r>
       <r>    5.3987    1.0000 </r>
       <r>    5.4067    1.0000 </r>
       <r>    5.4141    1.0000 </r>
       <r>    5.7047    1.0000 </r>
       <r>    5.7145    1.0000 </r>
       <r>   12.9654    0.0000 </r>
       <r>   14.1149    0.0000 </r>
       <r>   14.1207    0.0000 </r>
       <r>   15.3485    0.0000 </r>
       <r>   15.5392    0.0000 </r>
       <r>   15.6514    0.0000 </r>
       <r>   15.7838    0.0000 </r>
       <r>   15.8308    0.0000 </r>
       <r>   16.1955    0.0000 </r>
       <r>   16.2126    0.0000 </r>
       <r>   16.4117    0.0000 </r>
       <r>   16.4793    0.0000 </r>
       <r>   16.5667    0.0000 </r>
       <r>   16.6860    0.0000 </r>
       <r>   16.7551    0.0000 </r>
       <r>   16.8743    0.0000 </r>
      </set>
      <set comment="kpoint 6">
       <r>  -12.7314    1.0000 </r>
       <r>  -12.3525    1.0000 </r>
       <r>  -12.3251    1.0000 </r>
       <r>  -11.6950    1.0000 </r>
       <r>  -11.4083    1.0000 </r>
       <r>  -11.3616    1.0000 </r>
       <r>  -11.1612    1.0000 </r>
       <r>  -11.1446    1.0000 </r>
       <r>  -11.0061    1.0000 </r>
       <r>  -10.8790    1.0000 </r>
       <r>  -10.8351    1.0000 </r>
       <r>  -10.7123    1.0000 </r>
       <r>  -10.6890    1.0000 </r>
       <r>  -10.6262    1.0000 </r>
       <r>  -10.5673    1.0000 </r>
       <r>  -10.5145    1.0000 </r>
       <r>  -10.3884    1.0000 </r>
       <r>  -10.3694    1.0000 </r>
       <r>   -0.6420    1.0000 </r>
       <r>   -0.2989    1.0000 </r>
       <r>   -0.1551    1.0000 </r>
       <r>   -0.1186    1.0000 </r>
       <r>    0.0282    1.0000 </r>
       <r>    0.0686    1.0000 </r>
       <r>    0.1899    1.0000 </r>
       <r>    0.5739    1.0000 </r>
       <r>    0.7726    1.0000 </r>
       <r>    0.8339    1.0000 </r>
       <r>    1.3113    1.0000 </r>
       <r>    1.3827    1.0000 </r>
       <r>    1.5274    1.0000 </r>
       <r>    1.5642    1.0000 </r>
       <r>    1.5917    1.0000 </r>
       <r>    1.8100    1.0000 </r>
       <r>    1.9376    1.0000 </r>
       <r>    2.2438    1.0000 </r>
       <r>    2.4406    1.0000 </r>
       <r>    2.5810    1.0000 </r>
       <r>    2.8310    1.0000 </r>
       <r>    3.0630    1.0000 </r>
       <r>    3.1886    1.0000 </r>
       <r>    3.2014    1.0000 </r>
       <r>    3.3151    1.0000 </r>
       <r>    3.4479    1.0000 </r>
       <r>    3.5890    1.0000 </r>
       <r>    3.6060    1.0000 </r>
       <r>    3.6157    1.0000 </r>
       <r>    3.7325    1.0000 </r>
       <r>    3.8325    1.0000 </r>
       <r>    3.9807    1.0000 </r>
       <r>    4.1306    1.0000 </r>
       <r>    4.1386    1.0000 </r>
       <r>    4.1681    1.0000 </r>
       <r>    4.2666    1.0000 </r>
       <r>    4.2683    1.0000 </r>
       <r>    4.2884    1.0000 </r>
       <r>    4.4829    1.0000 </r>
       <r>    4.5076    1.0000 </r>
       <r>    4.5375    1.0000 </r>
       <r>    4.6392    1.0000 </r>
       <r>    4.8185    1.0000 </r>
       <r>    4.9071    1.0000 </r>
       <r>    4.9518    1.0000 </r>
       <r>    5.0999    1.0000 </r>
       <r>    5.1617    1.0000 </r>
       <r>    5.2856    1.0000 </r>
       <r>    5.3102    1.0000 </r>
       <r>    5.3450    1.0000 </r>
       <r>    5.3955    1.0000 </r>
       <r>    5.4153    1.0000 </r>
       <r>    5.6378    1.0000 </r>
       <r>    5.6672    1.0000 </r>
       <r>   13.5013    0.0000 </r>
       <r>   14.4738    0.0000 </r>
       <r>   14.4859    0.0000 </r>
       <r>   15.0996    0.0000 </r>
       <r>   15.2635    0.0000 </r>
       <r>   15.7947    0.0000 </r>
       <r>   15.8372    0.0000 </r>
       <r>   15.9158    0.0000 </r>
       <r>   16.0542    0.0000 </r>
       <r>   16.1212    0.0000 </r>
       <r>   16.1229    0.0000 </r>
       <r>   16.2918    0.0000 </r>
       <r>   16.3033    0.0000 </r>
       <r>   16.4523    0.0000 </r>
       <r>   16.6857    0.0000 </r>
       <r>   16.7923    0.0000 </r>
      </set>
      <set comment="kpoint 7">
       <r>  -12.5376    1.0000 </r>
       <r>  -12.2142    1.0000 </r>
       <r>  -12.1504    1.0000 </r>
       <r>  -11.8800    1.0000 </r>
       <r>  -11.5535    1.0000 </r>
       <r>  -11.3224    1.0000 </r>
       <r>  -11.3220    1.0000 </r>
       <r>  -11.0796    1.0000 </r>
       <r>  -11.0495    1.0000 </r>
       <r>  -10.9053    1.0000 </r>
       <r>  -10.8721    1.0000 </r>
       <r>  -10.7806    1.0000 </r>
       <r>  -10.7270    1.0000 </r>
       <r>  -10.6296    1.0000 </r>
       <r>  -10.5756    1.0000 </r>
       <r>  -10.5287    1.0000 </r>
       <r>  -10.4199    1.0000 </r>
       <r>  -10.3716    1.0000 </r>
       <r>   -0.6121    1.0000 </r>
       <r>   -0.4254    1.0000 </r>
       <r>   -0.1869    1.0000 </r>
       <r>   -0.0148    1.0000 </r>
       <r>    0.0120    1.0000 </r>
       <r>    0.1147    1.0000 </r>
       <r>    0.2032    1.0000 </r>
       <r>    0.7615    1.0000 </r>
       <r>    0.8694    1.0000 </r>
       <r>    1.0034    1.0000 </r>
       <r>    1.1058    1.0000 </r>
       <r>    1.2642    1.0000 </r>
       <r>    1.5903    1.0000 </r>
       <r>    1.6673    1.0000 </r>
       <r>    1.7843    1.0000 </r>
       <r>    1.9596    1.0000 </r>
       <r>    2.1066    1.0000 </r>
       <r>    2.1864    1.0000 </r>
       <r>    2.2458    1.0000 </r>
       <r>    2.6272    1.0000 </r>
       <r>    2.7184    1.0000 </r>
       <r>    3.0339    1.0000 </r>
       <r>    3.0452    1.0000 </r>
       <r>    3.2515    1.0000 </r>
       <r>    3.4100    1.0000 </r>
       <r>    3.4595    1.0000 </r>
       <r>    3.4900    1.0000 </r>
       <r>    3.5702    1.0000 </r>
       <r>    3.5769    1.0000 </r>
       <r>    3.7827    1.0000 </r>
       <r>    3.8835    1.0000 </r>
       <r>    4.0117    1.0000 </r>
       <r>    4.1774    1.0000 </r>
       <r>    4.1848    1.0000 </r>
       <r>    4.1974    1.0000 </r>
       <r>    4.2312    1.0000 </r>
[...]
       <r>    0.6883    1.0000 </r>
       <r>    0.6883    1.0000 </r>
       <r>    1.8998    1.0000 </r>
       <r>    1.8998    1.0000 </r>
       <r>    1.8998    1.0000 </r>
       <r>    1.8998    1.0000 </r>
       <r>    1.8998    1.0000 </r>
       <r>    1.8998    1.0000 </r>
       <r>    2.3025    1.0000 </r>
       <r>    2.3025    1.0000 </r>
       <r>    2.3025    1.0000 </r>
       <r>    2.3025    1.0000 </r>
       <r>    2.3025    1.0000 </r>
       <r>    2.3025    1.0000 </r>
       <r>    3.8374    1.0000 </r>
       <r>    3.8374    1.0000 </r>
       <r>    3.8374    1.0000 </r>
       <r>    3.8374    1.0000 </r>
       <r>    3.8374    1.0000 </r>
       <r>    3.8374    1.0000 </r>
       <r>    4.2299    1.0000 </r>
       <r>    4.2299    1.0000 </r>
       <r>    4.2299    1.0000 </r>
       <r>    4.2299    1.0000 </r>
       <r>    4.2299    1.0000 </r>
       <r>    4.2299    1.0000 </r>
       <r>    4.6307    1.0000 </r>
       <r>    4.6307    1.0000 </r>
       <r>    4.6307    1.0000 </r>
       <r>    4.6307    1.0000 </r>
       <r>    4.6307    1.0000 </r>
       <r>    4.6307    1.0000 </r>
       <r>    5.0154    1.0000 </r>
       <r>    5.0154    1.0000 </r>
       <r>    5.0154    1.0000 </r>
       <r>    5.0154    1.0000 </r>
       <r>    5.0154    1.0000 </r>
       <r>    5.0154    1.0000 </r>
       <r>    5.4775    1.0000 </r>
       <r>    5.4775    1.0000 </r>
       <r>    5.4775    1.0000 </r>
       <r>    5.4775    1.0000 </r>
       <r>    5.4775    1.0000 </r>
       <r>    5.4775    1.0000 </r>
       <r>   14.9185    0.0000 </r>
       <r>   14.9185    0.0000 </r>
       <r>   14.9185    0.0000 </r>
       <r>   14.9185    0.0000 </r>
       <r>   14.9185    0.0000 </r>
       <r>   14.9185    0.0000 </r>
       <r>   15.5301    0.0000 </r>
       <r>   15.5301    0.0000 </r>
       <r>   15.5301    0.0000 </r>
       <r>   15.5301    0.0000 </r>
       <r>   15.5301    0.0000 </r>
       <r>   15.5301    0.0000 </r>
       <r>   16.1806    0.0000 </r>
       <r>   16.1806    0.0000 </r>
       <r>   16.1806    0.0000 </r>
       <r>   16.1806    0.0000 </r>
      </set>
     </set>
    </set>
   </array>
  </eigenvalues>
  <separator name="orbital magnetization" >
   <v name="MAGDIPOLOUT">      0.00000000      0.00000000      0.00000000</v>
  </separator>
  <dos>
   <i name="efermi">      6.24681893 </i>
   <total>
    <array>
     <dimension dim="1">gridpoints</dimension>
     <dimension dim="2">spin</dimension>
     <field>energy</field>
     <field>total</field>
     <field>integrated</field>
     <set>
      <set comment="spin 1">
       <r>   -14.7591     0.0000     0.0000 </r>
       <r>   -14.6456     0.0000     0.0000 </r>
       <r>   -14.5321     0.0000     0.0000 </r>
       <r>   -14.4186     0.0000     0.0000 </r>
       <r>   -14.3051     0.0000     0.0000 </r>
       <r>   -14.1916     0.0000     0.0000 </r>
       <r>   -14.0781     0.0000     0.0000 </r>
       <r>   -13.9646     0.0000     0.0000 </r>
       <r>   -13.8511     0.0000     0.0000 </r>
       <r>   -13.7376     0.0000     0.0000 </r>
       <r>   -13.6240     0.0000     0.0000 </r>
       <r>   -13.5105     0.0000     0.0000 </r>
       <r>   -13.3970     0.0005     0.0001 </r>
       <r>   -13.2835     0.0371     0.0043 </r>
       <r>   -13.1700     0.4372     0.0539 </r>
       <r>   -13.0565     1.3807     0.2106 </r>
       <r>   -12.9430     2.2199     0.4626 </r>
       <r>   -12.8295     2.8780     0.7893 </r>
       <r>   -12.7160     3.4712     1.1833 </r>
       <r>   -12.6025     4.0704     1.6453 </r>
       <r>   -12.4890     4.6461     2.1726 </r>
       <r>   -12.3755     5.3648     2.7816 </r>
       <r>   -12.2620     6.0630     3.4698 </r>
       <r>   -12.1485     7.2099     4.2881 </r>
       <r>   -12.0349     8.4705     5.2496 </r>
       <r>   -11.9214     8.8186     6.2506 </r>
       <r>   -11.8079     8.6095     7.2278 </r>
       <r>   -11.6944     8.0066     8.1366 </r>
       <r>   -11.5809     7.7463     9.0159 </r>
       <r>   -11.4674     7.5484     9.8727 </r>
       <r>   -11.3539     9.2719    10.9251 </r>
       <r>   -11.2404    11.9512    12.2817 </r>
       <r>   -11.1269    15.2761    14.0156 </r>
       <r>   -11.0134    20.7618    16.3722 </r>
       <r>   -10.8999    23.3781    19.0258 </r>
       <r>   -10.7864    25.2900    21.8964 </r>
       <r>   -10.6729    29.5025    25.2452 </r>
       <r>   -10.5594    29.8808    28.6369 </r>
       <r>   -10.4458    31.5622    32.2194 </r>
       <r>   -10.3323    26.5349    35.2313 </r>
       <r>   -10.2188     6.5243    35.9719 </r>
       <r>   -10.1053     0.2468    35.9999 </r>
       <r>    -9.9918     0.0010    36.0000 </r>
       <r>    -9.8783     0.0000    36.0000 </r>
       <r>    -9.7648     0.0000    36.0000 </r>
       <r>    -9.6513     0.0000    36.0000 </r>
       <r>    -9.5378     0.0000    36.0000 </r>
       <r>    -9.4243     0.0000    36.0000 </r>
       <r>    -9.3108     0.0000    36.0000 </r>
       <r>    -9.1973     0.0000    36.0000 </r>
       <r>    -9.0838     0.0000    36.0000 </r>
       <r>    -8.9703     0.0000    36.0000 </r>
       <r>    -8.8567     0.0000    36.0000 </r>
       <r>    -8.7432     0.0000    36.0000 </r>
       <r>    -8.6297     0.0000    36.0000 </r>
       <r>    -8.5162     0.0000    36.0000 </r>
       <r>    -8.4027     0.0000    36.0000 </r>
       <r>    -8.2892     0.0000    36.0000 </r>
       <r>    -8.1757     0.0000    36.0000 </r>
       <r>    -8.0622     0.0000    36.0000 </r>
       <r>    -7.9487     0.0000    36.0000 </r>
       <r>    -7.8352     0.0000    36.0000 </r>
       <r>    -7.7217     0.0000    36.0000 </r>
       <r>    -7.6082     0.0000    36.0000 </r>
       <r>    -7.4947     0.0000    36.0000 </r>
       <r>    -7.3811     0.0000    36.0000 </r>
       <r>    -7.2676     0.0000    36.0000 </r>
       <r>    -7.1541     0.0000    36.0000 </r>
       <r>    -7.0406     0.0000    36.0000 </r>
       <r>    -6.9271     0.0000    36.0000 </r>
       <r>    -6.8136     0.0000    36.0000 </r>
       <r>    -6.7001     0.0000    36.0000 </r>
       <r>    -6.5866     0.0000    36.0000 </r>
       <r>    -6.4731     0.0000    36.0000 </r>
       <r>    -6.3596     0.0000    36.0000 </r>
       <r>    -6.2461     0.0000    36.0000 </r>
       <r>    -6.1326     0.0000    36.0000 </r>
       <r>    -6.0191     0.0000    36.0000 </r>
       <r>    -5.9056     0.0000    36.0000 </r>
       <r>    -5.7920     0.0000    36.0000 </r>
       <r>    -5.6785     0.0000    36.0000 </r>
       <r>    -5.5650     0.0000    36.0000 </r>
       <r>    -5.4515     0.0000    36.0000 </r>
       <r>    -5.3380     0.0000    36.0000 </r>
       <r>    -5.2245     0.0000    36.0000 </r>
       <r>    -5.1110     0.0000    36.0000 </r>
       <r>    -4.9975     0.0000    36.0000 </r>
       <r>    -4.8840     0.0000    36.0000 </r>
       <r>    -4.7705     0.0000    36.0000 </r>
       <r>    -4.6570     0.0000    36.0000 </r>
       <r>    -4.5435     0.0000    36.0000 </r>
       <r>    -4.4300     0.0000    36.0000 </r>
       <r>    -4.3165     0.0000    36.0000 </r>
       <r>    -4.2029     0.0000    36.0000 </r>
       <r>    -4.0894     0.0000    36.0000 </r>
       <r>    -3.9759     0.0000    36.0000 </r>
       <r>    -3.8624     0.0000    36.0000 </r>
       <r>    -3.7489     0.0000    36.0000 </r>
       <r>    -3.6354     0.0000    36.0000 </r>
       <r>    -3.5219     0.0000    36.0000 </r>
       <r>    -3.4084     0.0000    36.0000 </r>
       <r>    -3.2949     0.0000    36.0000 </r>
       <r>    -3.1814     0.0000    36.0000 </r>
       <r>    -3.0679     0.0000    36.0000 </r>
       <r>    -2.9544     0.0000    36.0000 </r>
       <r>    -2.8409     0.0000    36.0000 </r>
       <r>    -2.7274     0.0000    36.0000 </r>
       <r>    -2.6138     0.0000    36.0000 </r>
       <r>    -2.5003     0.0000    36.0000 </r>
       <r>    -2.3868     0.0000    36.0000 </r>
       <r>    -2.2733     0.0000    36.0000 </r>
       <r>    -2.1598     0.0000    36.0000 </r>
       <r>    -2.0463     0.0000    36.0000 </r>
       <r>    -1.9328     0.0000    36.0000 </r>
       <r>    -1.8193     0.0000    36.0000 </r>
       <r>    -1.7058     0.0000    36.0000 </r>
       <r>    -1.5923     0.0000    36.0000 </r>
       <r>    -1.4788     0.0000    36.0000 </r>
       <r>    -1.3653     0.0000    36.0000 </r>
       <r>    -1.2518     0.0000    36.0000 </r>
       <r>    -1.1382     0.0003    36.0000 </r>
       <r>    -1.0247     0.0185    36.0021 </r>
       <r>    -0.9112     0.2303    36.0283 </r>
       <r>    -0.7977     0.8841    36.1286 </r>
       <r>    -0.6842     1.7798    36.3306 </r>
       <r>    -0.5707     3.5305    36.7314 </r>
       <r>    -0.4572     6.0479    37.4179 </r>
       <r>    -0.3437     7.6984    38.2917 </r>
       <r>    -0.2302    12.2591    39.6832 </r>
       <r>    -0.1167    17.1801    41.6333 </r>
       <r>    -0.0032    16.7416    43.5335 </r>
       <r>     0.1103    15.5689    45.3007 </r>
       <r>     0.2238    15.8868    47.1040 </r>
       <r>     0.3373    15.6279    48.8779 </r>
       <r>     0.4509    12.7338    50.3232 </r>
       <r>     0.5644     9.6350    51.4169 </r>
       <r>     0.6779     9.2625    52.4683 </r>
       <r>     0.7914     9.7966    53.5802 </r>
       <r>     0.9049    13.6645    55.1313 </r>
       <r>     1.0184    14.9355    56.8265 </r>
       <r>     1.1319    12.6411    58.2614 </r>
       <r>     1.2454    11.1473    59.5267 </r>
       <r>     1.3589     9.7087    60.6287 </r>
       <r>     1.4724     8.7388    61.6206 </r>
       <r>     1.5859    10.3125    62.7912 </r>
       <r>     1.6994    13.6232    64.3375 </r>
       <r>     1.8129    16.5485    66.2159 </r>
       <r>     1.9264    18.6695    68.3350 </r>
       <r>     2.0400    17.0251    70.2675 </r>
       <r>     2.1535    13.3153    71.7788 </r>
       <r>     2.2670    11.1868    73.0486 </r>
       <r>     2.3805    10.2081    74.2073 </r>
       <r>     2.4940    10.6992    75.4218 </r>
       <r>     2.6075    11.4405    76.7203 </r>
       <r>     2.7210    12.3343    78.1204 </r>
       <r>     2.8345    11.6196    79.4393 </r>
       <r>     2.9480    11.2943    80.7213 </r>
       <r>     3.0615    11.2461    81.9978 </r>
       <r>     3.1750    11.8806    83.3463 </r>
       <r>     3.2885    14.6974    85.0146 </r>
       <r>     3.4020    15.8824    86.8173 </r>
       <r>     3.5156    18.4231    88.9085 </r>
       <r>     3.6291    25.1749    91.7660 </r>
       <r>     3.7426    21.6872    94.2277 </r>
       <r>     3.8561    19.1570    96.4021 </r>
       <r>     3.9696    19.1778    98.5790 </r>
       <r>     4.0831    20.1400   100.8650 </r>
       <r>     4.1966    22.8891   103.4631 </r>
       <r>     4.3101    23.9045   106.1764 </r>
       <r>     4.4236    26.7959   109.2179 </r>
       <r>     4.5371    32.4761   112.9042 </r>
       <r>     4.6506    32.2192   116.5613 </r>
       <r>     4.7641    23.3458   119.2112 </r>
       <r>     4.8776    21.9257   121.7000 </r>
       <r>     4.9911    23.5611   124.3743 </r>
       <r>     5.1047    25.4846   127.2670 </r>
       <r>     5.2182    27.7170   130.4131 </r>
       <r>     5.3317    27.3290   133.5151 </r>
       <r>     5.4452    26.8978   136.5682 </r>
       <r>     5.5587    29.0368   139.8641 </r>
       <r>     5.6722    22.1341   142.3765 </r>
       <r>     5.7857    11.0273   143.6282 </r>
       <r>     5.8992     3.0635   143.9759 </r>
       <r>     6.0127     0.2103   143.9998 </r>
       <r>     6.1262     0.0021   144.0000 </r>
       <r>     6.2397     0.0000   144.0000 </r>
       <r>     6.3532     0.0000   144.0000 </r>
       <r>     6.4667     0.0000   144.0000 </r>
       <r>     6.5802     0.0000   144.0000 </r>
       <r>     6.6938     0.0000   144.0000 </r>
       <r>     6.8073     0.0000   144.0000 </r>
       <r>     6.9208     0.0000   144.0000 </r>
       <r>     7.0343     0.0000   144.0000 </r>
       <r>     7.1478     0.0000   144.0000 </r>
       <r>     7.2613     0.0000   144.0000 </r>
       <r>     7.3748     0.0000   144.0000 </r>
       <r>     7.4883     0.0000   144.0000 </r>
       <r>     7.6018     0.0000   144.0000 </r>
       <r>     7.7153     0.0000   144.0000 </r>
       <r>     7.8288     0.0000   144.0000 </r>
       <r>     7.9423     0.0000   144.0000 </r>
       <r>     8.0558     0.0000   144.0000 </r>
       <r>     8.1693     0.0000   144.0000 </r>
       <r>     8.2829     0.0000   144.0000 </r>
       <r>     8.3964     0.0000   144.0000 </r>
       <r>     8.5099     0.0000   144.0000 </r>
       <r>     8.6234     0.0000   144.0000 </r>
       <r>     8.7369     0.0000   144.0000 </r>
       <r>     8.8504     0.0000   144.0000 </r>
       <r>     8.9639     0.0000   144.0000 </r>
       <r>     9.0774     0.0000   144.0000 </r>
       <r>     9.1909     0.0000   144.0000 </r>
       <r>     9.3044     0.0000   144.0000 </r>
       <r>     9.4179     0.0000   144.0000 </r>
       <r>     9.5314     0.0000   144.0000 </r>
       <r>     9.6449     0.0000   144.0000 </r>
       <r>     9.7585     0.0000   144.0000 </r>
       <r>     9.8720     0.0000   144.0000 </r>
       <r>     9.9855     0.0000   144.0000 </r>
       <r>    10.0990     0.0000   144.0000 </r>
       <r>    10.2125     0.0000   144.0000 </r>
       <r>    10.3260     0.0000   144.0000 </r>
       <r>    10.4395     0.0000   144.0000 </r>
       <r>    10.5530     0.0000   144.0000 </r>
       <r>    10.6665     0.0000   144.0000 </r>
       <r>    10.7800     0.0000   144.0000 </r>
       <r>    10.8935     0.0000   144.0000 </r>
       <r>    11.0070     0.0000   144.0000 </r>
       <r>    11.1205     0.0000   144.0000 </r>
       <r>    11.2340     0.0000   144.0000 </r>
       <r>    11.3476     0.0000   144.0000 </r>
       <r>    11.4611     0.0000   144.0000 </r>
       <r>    11.5746     0.0024   144.0003 </r>
       <r>    11.6881     0.0280   144.0035 </r>
       <r>    11.8016     0.1098   144.0159 </r>
       <r>    11.9151     0.2040   144.0391 </r>
       <r>    12.0286     0.2533   144.0678 </r>
       <r>    12.1421     0.3253   144.1048 </r>
       <r>    12.2556     0.3725   144.1470 </r>
       <r>    12.3691     0.4459   144.1977 </r>
       <r>    12.4826     0.6310   144.2693 </r>
       <r>    12.5961     0.4651   144.3221 </r>
       <r>    12.7096     0.5447   144.3839 </r>
       <r>    12.8231     0.9450   144.4912 </r>
       <r>    12.9367     0.8475   144.5874 </r>
       <r>    13.0502     0.6793   144.6645 </r>
       <r>    13.1637     1.0233   144.7806 </r>
       <r>    13.2772     1.2098   144.9179 </r>
       <r>    13.3907     1.1147   145.0445 </r>
       <r>    13.5042     1.2676   145.1884 </r>
       <r>    13.6177     1.4593   145.3540 </r>
       <r>    13.7312     1.4869   145.5228 </r>
       <r>    13.8447     1.7365   145.7199 </r>
       <r>    13.9582     1.8682   145.9319 </r>
       <r>    14.0717     1.9056   146.1482 </r>
       <r>    14.1852     2.3675   146.4169 </r>
       <r>    14.2987     2.3997   146.6893 </r>
       <r>    14.4122     2.6134   146.9860 </r>
       <r>    14.5258     3.2365   147.3533 </r>
       <r>    14.6393     3.3353   147.7319 </r>
       <r>    14.7528     4.5794   148.2517 </r>
       <r>    14.8663     6.9033   149.0353 </r>
       <r>    14.9798    10.7373   150.2540 </r>
       <r>    15.0933    11.5387   151.5638 </r>
       <r>    15.2068    12.2312   152.9521 </r>
       <r>    15.3203    12.7091   154.3947 </r>
       <r>    15.4338    13.2486   155.8985 </r>
       <r>    15.5473    13.8330   157.4686 </r>
       <r>    15.6608    13.8376   159.0393 </r>
       <r>    15.7743    14.0719   160.6366 </r>
       <r>    15.8878    15.0675   162.3468 </r>
       <r>    16.0014    14.9594   164.0448 </r>
       <r>    16.1149    14.4397   165.6838 </r>
       <r>    16.2284    13.7476   167.2443 </r>
       <r>    16.3419    12.6282   168.6777 </r>
       <r>    16.4554    11.7917   170.0161 </r>
       <r>    16.5689    10.7625   171.2378 </r>
       <r>    16.6824     9.1558   172.2770 </r>
       <r>    16.7959     7.2323   173.0979 </r>
       <r>    16.9094     6.9856   173.8909 </r>
       <r>    17.0229     5.9111   174.5618 </r>
       <r>    17.1364     4.7284   175.0985 </r>
       <r>    17.2499     3.7846   175.5281 </r>
       <r>    17.3634     2.1022   175.7667 </r>
       <r>    17.4769     1.0853   175.8899 </r>
       <r>    17.5905     0.5892   175.9568 </r>
       <r>    17.7040     0.2775   175.9883 </r>
       <r>    17.8175     0.0943   175.9990 </r>
       <r>    17.9310     0.0088   176.0000 </r>
       <r>    18.0445     0.0002   176.0000 </r>
       <r>    18.1580     0.0000   176.0000 </r>
       <r>    18.2715     0.0000   176.0000 </r>
       <r>    18.3850     0.0000   176.0000 </r>
       <r>    18.4985     0.0000   176.0000 </r>
       <r>    18.6120     0.0000   176.0000 </r>
       <r>    18.7255     0.0000   176.0000 </r>
       <r>    18.8390     0.0000   176.0000 </r>
       <r>    18.9525     0.0000   176.0000 </r>
       <r>    19.0660     0.0000   176.0000 </r>
       <r>    19.1796     0.0000   176.0000 </r>
       <r>    19.2931     0.0000   176.0000 </r>
      </set>
     </set>
    </array>
   </total>
  </dos>
 </calculation>
 <structure name="finalpos" >
  <crystal>
   <varray name="basis" >
    <v>       2.40372544      -4.16337458       0.00000000 </v>
    <v>       2.40372544       4.16337458      -0.00000000 </v>
    <v>       0.00000000       0.00000000      13.12117456 </v>
   </varray>
   <i name="volume">    262.62317947 </i>
   <varray name="rec_basis" >
    <v>       0.20801045      -0.12009489       0.00000000 </v>
    <v>       0.20801045       0.12009489      -0.00000000 </v>
    <v>      -0.00000000       0.00000000       0.07621269 </v>
   </varray>
  </crystal>
  <varray name="positions" >
   <v>       0.33333333       0.66666667       0.81453968 </v>
   <v>       0.66666667       0.33333333       0.68546032 </v>
   <v>      -0.00000000      -0.00000000       0.64787301 </v>
   <v>       0.33333333       0.66666667       0.51879366 </v>
   <v>      -0.00000000      -0.00000000       0.14787301 </v>
   <v>       0.33333333       0.66666667       0.01879366 </v>
   <v>       0.66666667       0.33333333       0.98120634 </v>
   <v>      -0.00000000      -0.00000000       0.85212699 </v>
   <v>       0.66666667       0.33333333       0.48120634 </v>
   <v>      -0.00000000      -0.00000000       0.35212699 </v>
   <v>       0.33333333       0.66666667       0.31453968 </v>
   <v>       0.66666667       0.33333333       0.18546032 </v>
   <v>       0.36049179       0.33333333       0.58333333 </v>
   <v>       0.69382512       0.69382512       0.75000000 </v>
   <v>       0.97284155       0.63950821       0.58333333 </v>
   <v>       0.66666667       0.02715845       0.58333333 </v>
   <v>      -0.00000000       0.30617488       0.75000000 </v>
   <v>       0.30617488       0.00000000       0.75000000 </v>
   <v>       0.02715845       0.66666667       0.91666667 </v>
   <v>       0.36049179       0.02715845       0.08333333 </v>
   <v>       0.63950821       0.97284155       0.91666667 </v>
   <v>       0.33333333       0.36049179       0.91666667 </v>
   <v>       0.66666667       0.63950821       0.08333333 </v>
   <v>       0.97284155       0.33333333       0.08333333 </v>
   <v>       0.69382512      -0.00000000       0.25000000 </v>
   <v>       0.02715845       0.36049179       0.41666667 </v>
   <v>       0.30617488       0.30617488       0.25000000 </v>
   <v>      -0.00000000       0.69382512       0.25000000 </v>
   <v>       0.33333333       0.97284155       0.41666667 </v>
   <v>       0.63950821       0.66666667       0.41666667 </v>
  </varray>
 </structure>
</modeling>
