ni3al                                   
           1
     2.402514   -4.161276    0.000000
     2.402514    4.161276    0.000000
     0.000000    0.000000   13.116253
   Al   O 
    12    18
Direct configuration=     1
   0.33333333  0.66666667  0.81457067
   0.66666667  0.33333333  0.68542933
   0.00000000  0.00000000  0.64790400
   0.33333333  0.66666667  0.51876267
   0.00000000  0.00000000  0.14790400
   0.33333333  0.66666667  0.01876267
   0.66666667  0.33333333  0.98123733
   0.00000000  0.00000000  0.85209600
   0.66666667  0.33333333  0.48123733
   0.00000000  0.00000000  0.35209600
   0.33333333  0.66666667  0.31457067
   0.66666667  0.33333333  0.18542933
   0.36052117  0.33333333  0.58333333
   0.69385450  0.69385450  0.75000000
   0.97281217  0.63947883  0.58333333
   0.66666667  0.02718783  0.58333333
   0.00000000  0.30614550  0.75000000
   0.30614550  0.00000000  0.75000000
   0.02718783  0.66666667  0.91666667
   0.36052117  0.02718783  0.08333333
   0.63947883  0.97281217  0.91666667
   0.33333333  0.36052117  0.91666667
   0.66666667  0.63947883  0.08333333
   0.97281217  0.33333333  0.08333333
   0.69385450  0.00000000  0.25000000
   0.02718783  0.36052117  0.41666667
   0.30614550  0.30614550  0.25000000
   0.00000000  0.69385450  0.25000000
   0.33333333  0.97281217  0.41666667
   0.63947883  0.66666667  0.41666667
ni3al                                   
           1
     2.404648   -4.164972    0.000000
     2.404648    4.164972   -0.000000
     0.000000    0.000000   13.124921
   Al   O 
    12    18
Direct configuration=     2
   0.33333333  0.66666667  0.81451611
   0.66666667  0.33333333  0.68548389
  -0.00000000 -0.00000000  0.64784945
   0.33333333  0.66666667  0.51881722
  -0.00000000 -0.00000000  0.14784945
   0.33333333  0.66666667  0.01881722
   0.66666667  0.33333333  0.98118278
  -0.00000000 -0.00000000  0.85215055
   0.66666667  0.33333333  0.48118278
  -0.00000000 -0.00000000  0.35215055
   0.33333333  0.66666667  0.31451611
   0.66666667  0.33333333  0.18548389
   0.36046946  0.33333333  0.58333333
   0.69380279  0.69380279  0.75000000
   0.97286387  0.63953054  0.58333333
   0.66666667  0.02713613  0.58333333
  -0.00000000  0.30619721  0.75000000
   0.30619721  0.00000000  0.75000000
   0.02713613  0.66666667  0.91666667
   0.36046946  0.02713613  0.08333333
   0.63953054  0.97286387  0.91666667
   0.33333333  0.36046946  0.91666667
   0.66666667  0.63953054  0.08333333
   0.97286387  0.33333333  0.08333333
   0.69380279 -0.00000000  0.25000000
   0.02713613  0.36046946  0.41666667
   0.30619721  0.30619721  0.25000000
  -0.00000000  0.69380279  0.25000000
   0.33333333  0.97286387  0.41666667
   0.63953054  0.66666667  0.41666667
ni3al                                   
           1
     2.403725   -4.163375    0.000000
     2.403725    4.163375   -0.000000
     0.000000    0.000000   13.121175
   Al   O 
    12    18
Direct configuration=     3
   0.33333333  0.66666667  0.81453968
   0.66666667  0.33333333  0.68546032
  -0.00000000 -0.00000000  0.64787301
   0.33333333  0.66666667  0.51879366
  -0.00000000 -0.00000000  0.14787301
   0.33333333  0.66666667  0.01879366
   0.66666667  0.33333333  0.98120634
  -0.00000000 -0.00000000  0.85212699
   0.66666667  0.33333333  0.48120634
  -0.00000000 -0.00000000  0.35212699
   0.33333333  0.66666667  0.31453968
   0.66666667  0.33333333  0.18546032
   0.36049179  0.33333333  0.58333333
   0.69382512  0.69382512  0.75000000
   0.97284155  0.63950821  0.58333333
   0.66666667  0.02715845  0.58333333
  -0.00000000  0.30617488  0.75000000
   0.30617488  0.00000000  0.75000000
   0.02715845  0.66666667  0.91666667
   0.36049179  0.02715845  0.08333333
   0.63950821  0.97284155  0.91666667
   0.33333333  0.36049179  0.91666667
   0.66666667  0.63950821  0.08333333
   0.97284155  0.33333333  0.08333333
   0.69382512 -0.00000000  0.25000000
   0.02715845  0.36049179  0.41666667
   0.30617488  0.30617488  0.25000000
  -0.00000000  0.69382512  0.25000000
   0.33333333  0.97284155  0.41666667
   0.63950821  0.66666667  0.41666667
