  96  96   0   0
  0.1889791E+02  0.9284262E-09  0.1072054E-08  0.1822724E-08  0.5000000E-15
  1.000000000000000E-004
  CAR 
 ni3al                                   
      8.83804765    -14.45017622  301      2.56046153      1.00000000
    -14.450  0.0000E+00  0.0000E+00
    -14.373  0.0000E+00  0.0000E+00
    -14.295  0.0000E+00  0.0000E+00
    -14.217  0.0000E+00  0.0000E+00
    -14.140  0.0000E+00  0.0000E+00
    -14.062  0.0000E+00  0.0000E+00
    -13.984  0.0000E+00  0.0000E+00
    -13.907  0.1147E-14  0.8900E-16
    -13.829  0.2184E-11  0.1696E-12
    -13.752  0.1282E-08  0.9966E-10
    -13.674  0.2344E-06  0.1829E-07
    -13.596  0.1365E-04  0.1078E-05
    -13.519  0.2658E-03  0.2171E-04
    -13.441  0.1957E-02  0.1736E-03
    -13.363  0.6924E-02  0.7111E-03
    -13.286  0.1454E-01  0.1840E-02
    -13.208  0.1916E-01  0.3327E-02
    -13.131  0.1645E-01  0.4604E-02
    -13.053  0.1185E-01  0.5525E-02
    -12.975  0.1575E-01  0.6747E-02
    -12.898  0.2487E-01  0.8678E-02
    -12.820  0.2396E-01  0.1054E-01
    -12.742  0.1249E-01  0.1151E-01
    -12.665  0.8401E-02  0.1216E-01
    -12.587  0.1859E-01  0.1360E-01
    -12.509  0.2637E-01  0.1565E-01
    -12.432  0.2496E-01  0.1759E-01
    -12.354  0.2773E-01  0.1974E-01
    -12.277  0.3637E-01  0.2256E-01
    -12.199  0.3666E-01  0.2541E-01
    -12.121  0.3150E-01  0.2785E-01
    -12.044  0.3708E-01  0.3073E-01
    -11.966  0.4961E-01  0.3458E-01
    -11.888  0.4390E-01  0.3799E-01
    -11.811  0.2213E-01  0.3971E-01
    -11.733  0.1372E-01  0.4078E-01
    -11.656  0.3482E-01  0.4348E-01
    -11.578  0.5930E-01  0.4808E-01
    -11.500  0.5419E-01  0.5229E-01
    -11.423  0.4159E-01  0.5552E-01
    -11.345  0.4847E-01  0.5928E-01
    -11.267  0.6129E-01  0.6404E-01
    -11.190  0.6014E-01  0.6870E-01
    -11.112  0.5954E-01  0.7333E-01
    -11.035  0.6646E-01  0.7849E-01
    -10.957  0.6167E-01  0.8327E-01
    -10.879  0.4571E-01  0.8682E-01
    -10.802  0.3540E-01  0.8957E-01
    -10.724  0.5980E-01  0.9421E-01
    -10.646  0.7926E-01  0.1004E+00
    -10.569  0.6304E-01  0.1053E+00
    -10.491  0.6664E-01  0.1104E+00
    -10.414  0.8981E-01  0.1174E+00
    -10.336  0.8206E-01  0.1238E+00
    -10.258  0.6731E-01  0.1290E+00
    -10.181  0.7077E-01  0.1345E+00
    -10.103  0.8054E-01  0.1407E+00
    -10.025  0.7231E-01  0.1464E+00
     -9.948  0.5823E-01  0.1509E+00
     -9.870  0.8386E-01  0.1574E+00
     -9.793  0.1121E+00  0.1661E+00
     -9.715  0.1069E+00  0.1744E+00
     -9.637  0.1104E+00  0.1830E+00
     -9.560  0.1154E+00  0.1919E+00
     -9.482  0.9498E-01  0.1993E+00
     -9.404  0.7410E-01  0.2050E+00
     -9.327  0.7354E-01  0.2107E+00
     -9.249  0.8569E-01  0.2174E+00
     -9.172  0.8449E-01  0.2240E+00
     -9.094  0.7339E-01  0.2297E+00
     -9.016  0.8083E-01  0.2359E+00
     -8.939  0.9722E-01  0.2435E+00
     -8.861  0.8060E-01  0.2497E+00
     -8.783  0.6176E-01  0.2545E+00
     -8.706  0.5373E-01  0.2587E+00
     -8.628  0.4383E-01  0.2621E+00
     -8.550  0.4709E-01  0.2658E+00
     -8.473  0.5740E-01  0.2702E+00
     -8.395  0.4822E-01  0.2740E+00
     -8.318  0.2964E-01  0.2763E+00
     -8.240  0.3131E-01  0.2787E+00
     -8.162  0.4073E-01  0.2818E+00
     -8.085  0.4251E-01  0.2851E+00
     -8.007  0.5724E-01  0.2896E+00
     -7.929  0.8220E-01  0.2960E+00
     -7.852  0.9330E-01  0.3032E+00
     -7.774  0.8856E-01  0.3101E+00
     -7.697  0.7295E-01  0.3158E+00
     -7.619  0.4230E-01  0.3190E+00
     -7.541  0.1128E-01  0.3199E+00
     -7.464  0.1115E-02  0.3200E+00
     -7.386  0.3808E-04  0.3200E+00
     -7.308  0.4340E-06  0.3200E+00
     -7.231  0.1618E-08  0.3200E+00
     -7.153  0.1940E-11  0.3200E+00
     -7.076  0.7421E-15  0.3200E+00
     -6.998  0.2276E-13  0.3200E+00
     -6.920  0.3282E-10  0.3200E+00
     -6.843  0.1460E-07  0.3200E+00
     -6.765  0.2031E-05  0.3200E+00
     -6.687  0.8998E-04  0.3200E+00
     -6.610  0.1315E-02  0.3201E+00
     -6.532  0.6812E-02  0.3206E+00
     -6.455  0.1527E-01  0.3218E+00
     -6.377  0.2502E-01  0.3238E+00
     -6.299  0.3764E-01  0.3267E+00
     -6.222  0.3528E-01  0.3294E+00
     -6.144  0.2682E-01  0.3315E+00
     -6.066  0.3263E-01  0.3340E+00
     -5.989  0.4575E-01  0.3376E+00
     -5.911  0.7788E-01  0.3436E+00
     -5.834  0.9569E-01  0.3511E+00
     -5.756  0.9288E-01  0.3583E+00
     -5.678  0.9661E-01  0.3658E+00
     -5.601  0.8886E-01  0.3727E+00
     -5.523  0.9622E-01  0.3801E+00
     -5.445  0.1286E+00  0.3901E+00
     -5.368  0.1543E+00  0.4021E+00
     -5.290  0.1391E+00  0.4129E+00
     -5.213  0.1249E+00  0.4226E+00
     -5.135  0.1173E+00  0.4317E+00
     -5.057  0.1164E+00  0.4408E+00
     -4.980  0.1380E+00  0.4515E+00
     -4.902  0.1417E+00  0.4625E+00
     -4.824  0.9150E-01  0.4696E+00
     -4.747  0.5975E-01  0.4742E+00
     -4.669  0.6580E-01  0.4793E+00
     -4.591  0.5603E-01  0.4837E+00
     -4.514  0.4654E-01  0.4873E+00
     -4.436  0.6286E-01  0.4921E+00
     -4.359  0.8412E-01  0.4987E+00
     -4.281  0.6861E-01  0.5040E+00
     -4.203  0.4275E-01  0.5073E+00
     -4.126  0.4282E-01  0.5106E+00
     -4.048  0.4197E-01  0.5139E+00
     -3.970  0.4793E-01  0.5176E+00
     -3.893  0.8036E-01  0.5239E+00
     -3.815  0.1000E+00  0.5316E+00
     -3.738  0.8952E-01  0.5386E+00
     -3.660  0.7715E-01  0.5446E+00
     -3.582  0.6794E-01  0.5498E+00
     -3.505  0.5823E-01  0.5544E+00
     -3.427  0.5939E-01  0.5590E+00
     -3.349  0.8769E-01  0.5658E+00
     -3.272  0.1212E+00  0.5752E+00
     -3.194  0.1394E+00  0.5860E+00
     -3.117  0.1250E+00  0.5957E+00
     -3.039  0.8659E-01  0.6024E+00
     -2.961  0.8781E-01  0.6092E+00
     -2.884  0.1332E+00  0.6196E+00
     -2.806  0.1606E+00  0.6321E+00
     -2.728  0.1254E+00  0.6418E+00
     -2.651  0.9186E-01  0.6489E+00
     -2.573  0.9274E-01  0.6561E+00
     -2.496  0.1131E+00  0.6649E+00
     -2.418  0.1370E+00  0.6755E+00
     -2.340  0.1185E+00  0.6847E+00
     -2.263  0.7774E-01  0.6908E+00
     -2.185  0.9144E-01  0.6979E+00
     -2.107  0.1234E+00  0.7074E+00
     -2.030  0.1106E+00  0.7160E+00
     -1.952  0.1071E+00  0.7243E+00
     -1.875  0.1255E+00  0.7341E+00
     -1.797  0.1213E+00  0.7435E+00
     -1.719  0.1475E+00  0.7550E+00
     -1.642  0.2005E+00  0.7705E+00
     -1.564  0.2033E+00  0.7863E+00
     -1.486  0.1954E+00  0.8015E+00
     -1.409  0.1884E+00  0.8161E+00
     -1.331  0.1774E+00  0.8299E+00
     -1.254  0.1592E+00  0.8422E+00
     -1.176  0.1253E+00  0.8520E+00
     -1.098  0.1372E+00  0.8626E+00
     -1.021  0.1561E+00  0.8747E+00
     -0.943  0.1516E+00  0.8865E+00
     -0.865  0.1551E+00  0.8985E+00
     -0.788  0.1571E+00  0.9107E+00
     -0.710  0.1364E+00  0.9213E+00
     -0.632  0.1453E+00  0.9326E+00
     -0.555  0.1711E+00  0.9459E+00
     -0.477  0.1562E+00  0.9580E+00
     -0.400  0.1156E+00  0.9670E+00
     -0.322  0.1096E+00  0.9755E+00
     -0.244  0.1120E+00  0.9842E+00
     -0.167  0.1151E+00  0.9931E+00
     -0.089  0.1236E+00  0.1003E+01
     -0.011  0.1263E+00  0.1013E+01
      0.066  0.1670E+00  0.1025E+01
      0.144  0.2283E+00  0.1043E+01
      0.221  0.2635E+00  0.1064E+01
      0.299  0.2441E+00  0.1083E+01
      0.377  0.1862E+00  0.1097E+01
      0.454  0.1641E+00  0.1110E+01
      0.532  0.1606E+00  0.1122E+01
      0.610  0.1203E+00  0.1132E+01
      0.687  0.7925E-01  0.1138E+01
      0.765  0.8348E-01  0.1144E+01
      0.842  0.8843E-01  0.1151E+01
      0.920  0.7583E-01  0.1157E+01
      0.998  0.5536E-01  0.1161E+01
      1.075  0.5567E-01  0.1166E+01
      1.153  0.6039E-01  0.1170E+01
      1.231  0.5223E-01  0.1174E+01
      1.308  0.4913E-01  0.1178E+01
      1.386  0.4782E-01  0.1182E+01
      1.463  0.4232E-01  0.1185E+01
      1.541  0.2608E-01  0.1187E+01
      1.619  0.1613E-01  0.1188E+01
      1.696  0.2226E-01  0.1190E+01
      1.774  0.3216E-01  0.1193E+01
      1.852  0.2556E-01  0.1195E+01
      1.929  0.2085E-01  0.1196E+01
      2.007  0.2703E-01  0.1198E+01
      2.084  0.3630E-01  0.1201E+01
      2.162  0.5252E-01  0.1205E+01
      2.240  0.8567E-01  0.1212E+01
      2.317  0.1281E+00  0.1222E+01
      2.395  0.1925E+00  0.1237E+01
      2.473  0.2521E+00  0.1256E+01
      2.550  0.2692E+00  0.1277E+01
      2.628  0.2694E+00  0.1298E+01
      2.705  0.2816E+00  0.1320E+01
      2.783  0.2445E+00  0.1339E+01
      2.861  0.1664E+00  0.1352E+01
      2.938  0.8117E-01  0.1358E+01
      3.016  0.2049E-01  0.1360E+01
      3.094  0.2108E-02  0.1360E+01
      3.171  0.7827E-04  0.1360E+01
      3.249  0.9813E-06  0.1360E+01
      3.327  0.3992E-08  0.1360E+01
      3.404  0.5139E-11  0.1360E+01
      3.482  0.2060E-14  0.1360E+01
      3.559  0.0000E+00  0.1360E+01
      3.637  0.0000E+00  0.1360E+01
      3.715  0.5959E-17  0.1360E+01
      3.792  0.2558E-13  0.1360E+01
      3.870  0.3622E-10  0.1360E+01
      3.948  0.1582E-07  0.1360E+01
      4.025  0.2153E-05  0.1360E+01
      4.103  0.9269E-04  0.1360E+01
      4.180  0.1291E-02  0.1360E+01
      4.258  0.6088E-02  0.1361E+01
      4.336  0.1141E-01  0.1361E+01
      4.413  0.1463E-01  0.1363E+01
      4.491  0.1870E-01  0.1364E+01
      4.569  0.1875E-01  0.1366E+01
      4.646  0.1925E-01  0.1367E+01
      4.724  0.2563E-01  0.1369E+01
      4.801  0.3796E-01  0.1372E+01
      4.879  0.3676E-01  0.1375E+01
      4.957  0.2162E-01  0.1376E+01
      5.034  0.1942E-01  0.1378E+01
      5.112  0.2050E-01  0.1380E+01
      5.190  0.1439E-01  0.1381E+01
      5.267  0.1343E-01  0.1382E+01
      5.345  0.1409E-01  0.1383E+01
      5.422  0.1979E-01  0.1384E+01
      5.500  0.5012E-01  0.1388E+01
      5.578  0.8234E-01  0.1395E+01
      5.655  0.7403E-01  0.1400E+01
      5.733  0.5719E-01  0.1405E+01
      5.811  0.6668E-01  0.1410E+01
      5.888  0.7037E-01  0.1415E+01
      5.966  0.7682E-01  0.1421E+01
      6.043  0.9884E-01  0.1429E+01
      6.121  0.8798E-01  0.1436E+01
      6.199  0.5868E-01  0.1440E+01
      6.276  0.4718E-01  0.1444E+01
      6.354  0.4671E-01  0.1448E+01
      6.432  0.6991E-01  0.1453E+01
      6.509  0.9924E-01  0.1461E+01
      6.587  0.1262E+00  0.1471E+01
      6.664  0.1455E+00  0.1482E+01
      6.742  0.1274E+00  0.1492E+01
      6.820  0.1018E+00  0.1500E+01
      6.897  0.1137E+00  0.1509E+01
      6.975  0.1238E+00  0.1518E+01
      7.053  0.1141E+00  0.1527E+01
      7.130  0.1378E+00  0.1538E+01
      7.208  0.1730E+00  0.1551E+01
      7.285  0.1855E+00  0.1566E+01
      7.363  0.1579E+00  0.1578E+01
      7.441  0.1199E+00  0.1587E+01
      7.518  0.1066E+00  0.1595E+01
      7.596  0.7591E-01  0.1601E+01
      7.674  0.3382E-01  0.1604E+01
      7.751  0.1755E-01  0.1605E+01
      7.829  0.1219E-01  0.1606E+01
      7.907  0.4407E-02  0.1607E+01
      7.984  0.6124E-03  0.1607E+01
      8.062  0.3010E-04  0.1607E+01
      8.139  0.4964E-06  0.1607E+01
      8.217  0.2645E-08  0.1607E+01
      8.295  0.4442E-11  0.1607E+01
      8.372  0.2312E-14  0.1607E+01
      8.450  0.0000E+00  0.1607E+01
      8.528  0.0000E+00  0.1607E+01
      8.605  0.0000E+00  0.1607E+01
      8.683  0.0000E+00  0.1607E+01
      8.760  0.0000E+00  0.1607E+01
      8.838  0.0000E+00  0.1607E+01
