   96   96  300    1
  0.1889791E+02  0.9284262E-09  0.1072054E-08  0.1822724E-08  0.5000000E-15
  1.000000000000000E-004
  CAR 
 ni3al                                   
    384      6    241
 
  0.0000000E+00  0.0000000E+00  0.0000000E+00  0.8333333E-01
      1        -13.391621   1.000000
      2        -12.453071   1.000000
      3        -12.354287   1.000000
      4        -12.354263   1.000000
      5        -12.020542   1.000000
      6        -12.020412   1.000000
      7        -11.493655   1.000000
      8        -11.436625   1.000000
      9        -11.436595   1.000000
     10        -11.112036   1.000000
     11        -11.111910   1.000000
     12        -11.087836   1.000000
     13        -11.087810   1.000000
     14        -11.087710   1.000000
     15        -11.087692   1.000000
     16        -10.522347   1.000000
     17        -10.522321   1.000000
     18        -10.232314   1.000000
     19        -10.232279   1.000000
     20        -10.232192   1.000000
     21        -10.232167   1.000000
     22        -10.217760   1.000000
     23        -10.217637   1.000000
     24        -10.175864   1.000000
     25        -10.034134   1.000000
     26         -9.604957   1.000000
     27         -9.448995   1.000000
     28         -9.448937   1.000000
     29         -9.437068   1.000000
     30         -9.437039   1.000000
     31         -9.436952   1.000000
     32         -9.436934   1.000000
     33         -9.097704   1.000000
     34         -9.097667   1.000000
     35         -9.083627   1.000000
     36         -9.083542   1.000000
     37         -8.950644   1.000000
     38         -8.811128   1.000000
     39         -8.810996   1.000000
     40         -8.369641   1.000000
     41         -8.369553   1.000000
     42         -8.145358   1.000000
     43         -8.145319   1.000000
     44         -8.145241   1.000000
     45         -8.145214   1.000000
     46         -7.964682   1.000000
     47         -7.705934   1.000000
     48         -7.705855   1.000000
     49         -6.500984   1.000000
     50         -5.906179   1.000000
     51         -5.857591   1.000000
     52         -5.857533   1.000000
     53         -5.812993   1.000000
     54         -5.674675   1.000000
     55         -5.674671   1.000000
     56         -5.674662   1.000000
     57         -5.674658   1.000000
     58         -5.528132   1.000000
     59         -5.528061   1.000000
     60         -5.464899   1.000000
     61         -5.183748   1.000000
     62         -5.183739   1.000000
     63         -5.183734   1.000000
     64         -5.183725   1.000000
     65         -5.101449   1.000000
     66         -5.101438   1.000000
     67         -4.970423   1.000000
     68         -4.970375   1.000000
     69         -4.801925   1.000000
     70         -4.801854   1.000000
     71         -4.616926   1.000000
     72         -4.554710   1.000000
     73         -4.554636   1.000000
     74         -4.438633   1.000000
     75         -4.438622   1.000000
     76         -4.438610   1.000000
     77         -4.438594   1.000000
     78         -3.768212   1.000000
     79         -3.768148   1.000000
     80         -3.723056   1.000000
     81         -3.723026   1.000000
     82         -3.579182   1.000000
     83         -3.579119   1.000000
     84         -3.548535   1.000000
     85         -3.548534   1.000000
     86         -3.428511   1.000000
     87         -3.428501   1.000000
     88         -3.428487   1.000000
     89         -3.428486   1.000000
     90         -3.424530   1.000000
     91         -3.318374   1.000000
     92         -3.318304   1.000000
     93         -2.956939   1.000000
     94         -2.956892   1.000000
     95         -2.831821   1.000000
     96         -2.831798   1.000000
     97         -2.831770   1.000000
     98         -2.831752   1.000000
     99         -2.670425   1.000000
    100         -2.670406   1.000000
    101         -2.618045   1.000000
    102         -2.618041   1.000000
    103         -2.451305   1.000000
    104         -2.451297   1.000000
    105         -2.307693   1.000000
    106         -2.307635   1.000000
    107         -2.234719   1.000000
    108         -1.901684   1.000000
    109         -1.901657   1.000000
    110         -1.724991   1.000000
    111         -1.677544   1.000000
    112         -1.677541   1.000000
    113         -1.677479   1.000000
    114         -1.677476   1.000000
    115         -1.659136   1.000000
    116         -1.659126   1.000000
    117         -1.652617   1.000000
    118         -1.652600   1.000000
    119         -1.453136   1.000000
    120         -1.453117   1.000000
    121         -1.453052   1.000000
    122         -1.453038   1.000000
    123         -1.383932   1.000000
    124         -1.323440   1.000000
    125         -1.323416   1.000000
    126         -1.271207   1.000000
    127         -1.271149   1.000000
    128         -1.150823   1.000000
    129         -1.150812   1.000000
    130         -0.950483   1.000000
    131         -0.950468   1.000000
    132         -0.950392   1.000000
    133         -0.950382   1.000000
    134         -0.948160   1.000000
    135         -0.943753   1.000000
    136         -0.943682   1.000000
    137         -0.673950   1.000000
    138         -0.657407   1.000000
    139         -0.657379   1.000000
    140         -0.618061   1.000000
    141         -0.618046   1.000000
    142         -0.516700   1.000000
    143         -0.516693   1.000000
    144         -0.492240   1.000000
    145         -0.492232   1.000000
    146         -0.492162   1.000000
    147         -0.492157   1.000000
    148         -0.145469   1.000000
    149          0.013130   1.000000
    150          0.013136   1.000000
    151          0.024686   1.000000
    152          0.050415   1.000000
    153          0.050501   1.000000
    154          0.052575   1.000000
    155          0.052601   1.000000
    156          0.170916   1.000000
    157          0.170936   1.000000
    158          0.170980   1.000000
    159          0.170996   1.000000
    160          0.253353   1.000000
    161          0.253412   1.000000
    162          0.516233   1.000000
    163          0.516435   1.000000
    164          0.517822   1.000000
    165          0.517839   1.000000
    166          0.524465   1.000000
    167          0.524509   1.000000
    168          0.579526   1.000000
    169          0.579539   1.000000
    170          0.579614   1.000000
    171          0.579622   1.000000
    172          0.805471   1.000000
    173          1.038233   1.000000
    174          1.038241   1.000000
    175          1.374577   1.000000
    176          1.375422   1.000000
    177          1.409629   1.000000
    178          1.409668   1.000000
    179          2.018790   1.000000
    180          2.063584   1.000000
    181          2.093877   1.000000
    182          2.094246   1.000000
    183          2.388143   0.992594
    184          2.388147   0.992593
    185          2.388192   0.992580
    186          2.388196   0.992579
    187          2.470942   0.897242
    188          2.470954   0.897214
    189          2.481890   0.866753
    190          2.521060   0.711312
    191          2.521097   0.711133
    192          2.604188   0.268161
    193          2.604253   0.267858
    194          2.617146   0.211382
    195          2.617151   0.211360
    196          2.617180   0.211243
    197          2.617184   0.211227
    198          2.674133   0.053966
    199          2.674193   0.053873
    200          2.725287   0.009877
    201          2.725317   0.009866
    202          2.782209   0.000856
    203          2.782217   0.000856
    204          2.851609   0.000019
    205          4.287881   0.000000
    206          5.010049   0.000000
    207          5.010051   0.000000
    208          5.010072   0.000000
    209          5.010074   0.000000
    210          5.601634   0.000000
    211          5.601649   0.000000
    212          5.620531   0.000000
    213          5.939484   0.000000
    214          5.939536   0.000000
    215          6.030080   0.000000
    216          6.065006   0.000000
    217          6.065067   0.000000
    218          6.263818   0.000000
    219          6.263829   0.000000
    220          6.263842   0.000000
    221          6.263852   0.000000
    222          6.589731   0.000000
    223          6.589742   0.000000
    224          6.594253   0.000000
    225          6.594317   0.000000
    226          6.618615   0.000000
    227          6.855790   0.000000
    228          6.855796   0.000000
    229          6.855799   0.000000
    230          6.855808   0.000000
    231          6.973879   0.000000
    232          7.087639   0.000000
    233          7.087687   0.000000
    234          7.110262   0.000000
    235          7.186163   0.000000
    236          7.186222   0.000000
    237          7.356025   0.000000
    238          7.356058   0.000000
    239          7.358077   0.000000
    240          7.368575   0.000000
    241          7.464575   0.000000
 
  0.2500000E+00  0.0000000E+00  0.0000000E+00  0.1666667E+00
      1        -13.303262   1.000000
      2        -12.608190   1.000000
      3        -12.366113   1.000000
      4        -12.270042   1.000000
      5        -12.270018   1.000000
      6        -11.684168   1.000000
      7        -11.617017   1.000000
      8        -11.616994   1.000000
      9        -11.409748   1.000000
     10        -11.354461   1.000000
     11        -11.354430   1.000000
     12        -11.302674   1.000000
     13        -10.756303   1.000000
     14        -10.724240   1.000000
     15        -10.724210   1.000000
     16        -10.511077   1.000000
     17        -10.511058   1.000000
     18        -10.444786   1.000000
     19        -10.444760   1.000000
     20        -10.424429   1.000000
     21        -10.108229   1.000000
     22         -9.952316   1.000000
     23         -9.862446   1.000000
     24         -9.862421   1.000000
     25         -9.781768   1.000000
     26         -9.764494   1.000000
     27         -9.764468   1.000000
     28         -9.640552   1.000000
     29         -9.592401   1.000000
     30         -9.543427   1.000000
     31         -9.320257   1.000000
     32         -9.186047   1.000000
     33         -9.170248   1.000000
     34         -9.083693   1.000000
     35         -9.083669   1.000000
     36         -9.024126   1.000000
     37         -9.024089   1.000000
     38         -8.890002   1.000000
     39         -8.552971   1.000000
     40         -8.501282   1.000000
     41         -8.489064   1.000000
     42         -8.489028   1.000000
     43         -8.253028   1.000000
     44         -7.964710   1.000000
     45         -7.964688   1.000000
     46         -7.921596   1.000000
     47         -7.718310   1.000000
     48         -7.682016   1.000000
     49         -6.427583   1.000000
     50         -6.277489   1.000000
     51         -6.277484   1.000000
     52         -5.954922   1.000000
     53         -5.844512   1.000000
     54         -5.808415   1.000000
     55         -5.739699   1.000000
     56         -5.722809   1.000000
     57         -5.722804   1.000000
     58         -5.557758   1.000000
     59         -5.478951   1.000000
     60         -5.396006   1.000000
     61         -5.236718   1.000000
     62         -5.236710   1.000000
     63         -5.223848   1.000000
     64         -5.120247   1.000000
     65         -5.073870   1.000000
     66         -5.073865   1.000000
     67         -5.057111   1.000000
     68         -5.057101   1.000000
     69         -4.959083   1.000000
     70         -4.921416   1.000000
     71         -4.564686   1.000000
     72         -4.540964   1.000000
     73         -4.402319   1.000000
     74         -4.398964   1.000000
     75         -4.398956   1.000000
     76         -4.303099   1.000000
     77         -4.171388   1.000000
     78         -4.171365   1.000000
     79         -3.927590   1.000000
     80         -3.705264   1.000000
     81         -3.682634   1.000000
     82         -3.562658   1.000000
     83         -3.562646   1.000000
     84         -3.554593   1.000000
     85         -3.554592   1.000000
     86         -3.366026   1.000000
     87         -3.257946   1.000000
     88         -3.195165   1.000000
     89         -3.170742   1.000000
     90         -3.086795   1.000000
     91         -3.086789   1.000000
     92         -3.002659   1.000000
     93         -2.950354   1.000000
     94         -2.864093   1.000000
     95         -2.827111   1.000000
     96         -2.641518   1.000000
     97         -2.641515   1.000000
     98         -2.562167   1.000000
     99         -2.562149   1.000000
    100         -2.492011   1.000000
    101         -2.492005   1.000000
    102         -2.388518   1.000000
    103         -2.388499   1.000000
    104         -2.259444   1.000000
    105         -2.198536   1.000000
    106         -2.116673   1.000000
    107         -2.013978   1.000000
    108         -2.004109   1.000000
    109         -1.900873   1.000000
    110         -1.834042   1.000000
    111         -1.731434   1.000000
    112         -1.696724   1.000000
    113         -1.696715   1.000000
    114         -1.674438   1.000000
    115         -1.674424   1.000000
    116         -1.582381   1.000000
    117         -1.582373   1.000000
    118         -1.564016   1.000000
    119         -1.502214   1.000000
    120         -1.500127   1.000000
    121         -1.500111   1.000000
    122         -1.437345   1.000000
    123         -1.417165   1.000000
    124         -1.417158   1.000000
    125         -1.373379   1.000000
    126         -1.373370   1.000000
    127         -1.360011   1.000000
    128         -1.290177   1.000000
    129         -1.280884   1.000000
    130         -1.063870   1.000000
    131         -1.063853   1.000000
    132         -1.021626   1.000000
    133         -0.942286   1.000000
    134         -0.935990   1.000000
    135         -0.839858   1.000000
    136         -0.830675   1.000000
    137         -0.830668   1.000000
    138         -0.814765   1.000000
    139         -0.741474   1.000000
    140         -0.741467   1.000000
    141         -0.717180   1.000000
    142         -0.631751   1.000000
    143         -0.631744   1.000000
    144         -0.585106   1.000000
    145         -0.333991   1.000000
    146         -0.333973   1.000000
    147         -0.309441   1.000000
    148         -0.299398   1.000000
    149         -0.299398   1.000000
    150         -0.060778   1.000000
    151          0.064584   1.000000
    152          0.064599   1.000000
    153          0.077258   1.000000
    154          0.079367   1.000000
    155          0.079388   1.000000
    156          0.134227   1.000000
    157          0.140233   1.000000
    158          0.143910   1.000000
    159          0.194667   1.000000
    160          0.194686   1.000000
    161          0.238450   1.000000
    162          0.252646   1.000000
    163          0.252651   1.000000
    164          0.328667   1.000000
    165          0.386938   1.000000
    166          0.402985   1.000000
    167          0.477973   1.000000
    168          0.480695   1.000000
    169          0.480702   1.000000
    170          0.672789   1.000000
    171          0.733051   1.000000
    172          0.733064   1.000000
    173          0.814058   1.000000
    174          0.967643   1.000000
    175          1.068329   1.000000
    176          1.068365   1.000000
    177          1.188234   1.000000
    178          1.257371   1.000000
    179          1.750893   1.000000
    180          2.013367   1.000000
    181          2.145155   1.000000
    182          2.172015   1.000000
    183          2.215301   0.999999
    184          2.215307   0.999999
    185          2.402919   0.987059
    186          2.426491   0.970929
    187          2.481614   0.867589
    188          2.481618   0.867579
    189          2.536118   0.634679
    190          2.536125   0.634642
    191          2.560570   0.499386
    192          2.560594   0.499253
    193          2.560605   0.499193
    194          2.565617   0.470938
    195          2.629078   0.165926
    196          2.659780   0.080073
    197          2.678914   0.046950
    198          2.689177   0.034356
    199          2.741101   0.005315
    200          2.741106   0.005314
    201          2.782023   0.000864
    202          2.782029   0.000864
    203          2.813660   0.000171
    204          2.871444   0.000005
    205          4.476583   0.000000
    206          4.476586   0.000000
    207          4.713890   0.000000
    208          5.747470   0.000000
    209          5.799583   0.000000
    210          5.799591   0.000000
    211          5.812113   0.000000
    212          5.824954   0.000000
    213          5.824955   0.000000
    214          6.036387   0.000000
    215          6.036402   0.000000
    216          6.077144   0.000000
    217          6.237564   0.000000
    218          6.237573   0.000000
    219          6.258525   0.000000
    220          6.382098   0.000000
    221          6.401609   0.000000
    222          6.484912   0.000000
    223          6.830399   0.000000
    224          6.830404   0.000000
    225          6.886341   0.000000
    226          6.886352   0.000000
    227          6.902345   0.000000
    228          6.930692   0.000000
    229          6.956823   0.000000
    230          6.956834   0.000000
    231          6.958617   0.000000
    232          7.089805   0.000000
    233          7.119328   0.000000
    234          7.157973   0.000000
    235          7.270633   0.000000
    236          7.298989   0.000000
    237          7.486697   0.000000
    238          7.486703   0.000000
    239          7.510663   0.000000
    240          7.594124   0.000000
    241          7.736128   0.000000
 
  0.5000000E+00  0.0000000E+00  0.0000000E+00  0.8333333E-01
      1        -13.040072   1.000000
      2        -13.040071   1.000000
      3        -12.107412   1.000000
      4        -12.107410   1.000000
      5        -12.020503   1.000000
      6        -12.020487   1.000000
      7        -12.020477   1.000000
      8        -12.020461   1.000000
      9        -11.160779   1.000000
     10        -11.160779   1.000000
     11        -11.111996   1.000000
     12        -11.111974   1.000000
     13        -11.111964   1.000000
     14        -11.111945   1.000000
     15        -10.510753   1.000000
     16        -10.510746   1.000000
     17        -10.217712   1.000000
     18        -10.217695   1.000000
     19        -10.217676   1.000000
     20        -10.217660   1.000000
     21        -10.175824   1.000000
     22        -10.175811   1.000000
     23         -9.915427   1.000000
     24         -9.915422   1.000000
     25         -9.710311   1.000000
     26         -9.710309   1.000000
     27         -9.704841   1.000000
     28         -9.704823   1.000000
     29         -9.604959   1.000000
     30         -9.604940   1.000000
     31         -9.375265   1.000000
     32         -9.375259   1.000000
     33         -8.987066   1.000000
     34         -8.987053   1.000000
     35         -8.950851   1.000000
     36         -8.950823   1.000000
     37         -8.811098   1.000000
     38         -8.811067   1.000000
     39         -8.811055   1.000000
     40         -8.811030   1.000000
     41         -8.722092   1.000000
     42         -8.722090   1.000000
     43         -7.964528   1.000000
     44         -7.964522   1.000000
     45         -7.814466   1.000000
     46         -7.814458   1.000000
     47         -7.812971   1.000000
     48         -7.812952   1.000000
     49         -6.501170   1.000000
     50         -6.501169   1.000000
     51         -6.221160   1.000000
     52         -6.221160   1.000000
     53         -5.906099   1.000000
     54         -5.906096   1.000000
     55         -5.688188   1.000000
     56         -5.688178   1.000000
     57         -5.546829   1.000000
     58         -5.546825   1.000000
     59         -5.529379   1.000000
     60         -5.529379   1.000000
     61         -5.465051   1.000000
     62         -5.465048   1.000000
     63         -5.205716   1.000000
     64         -5.205716   1.000000
     65         -5.159406   1.000000
     66         -5.159402   1.000000
     67         -4.970413   1.000000
     68         -4.970408   1.000000
     69         -4.970399   1.000000
     70         -4.970394   1.000000
     71         -4.713784   1.000000
     72         -4.713777   1.000000
     73         -4.616411   1.000000
     74         -4.616401   1.000000
     75         -4.441687   1.000000
     76         -4.441665   1.000000
     77         -3.722993   1.000000
     78         -3.722991   1.000000
     79         -3.722982   1.000000
     80         -3.722980   1.000000
     81         -3.715423   1.000000
     82         -3.715423   1.000000
     83         -3.219617   1.000000
     84         -3.219615   1.000000
     85         -3.148329   1.000000
     86         -3.148329   1.000000
     87         -2.969039   1.000000
     88         -2.969038   1.000000
     89         -2.956923   1.000000
     90         -2.956916   1.000000
     91         -2.956896   1.000000
     92         -2.956890   1.000000
     93         -2.670583   1.000000
     94         -2.670573   1.000000
     95         -2.670566   1.000000
     96         -2.670562   1.000000
     97         -2.624977   1.000000
     98         -2.624970   1.000000
     99         -2.480665   1.000000
    100         -2.480660   1.000000
    101         -2.238187   1.000000
    102         -2.238179   1.000000
    103         -2.234710   1.000000
    104         -2.234695   1.000000
    105         -2.192754   1.000000
    106         -2.192754   1.000000
    107         -2.047921   1.000000
    108         -2.047915   1.000000
    109         -1.901673   1.000000
    110         -1.901664   1.000000
    111         -1.901649   1.000000
    112         -1.901639   1.000000
    113         -1.728239   1.000000
    114         -1.728234   1.000000
    115         -1.725084   1.000000
    116         -1.725067   1.000000
    117         -1.652882   1.000000
    118         -1.652873   1.000000
    119         -1.652864   1.000000
    120         -1.652860   1.000000
    121         -1.383854   1.000000
    122         -1.383849   1.000000
    123         -1.323567   1.000000
    124         -1.323563   1.000000
    125         -1.323538   1.000000
    126         -1.323533   1.000000
    127         -1.304477   1.000000
    128         -1.304472   1.000000
    129         -1.171593   1.000000
    130         -1.171590   1.000000
    131         -1.138715   1.000000
    132         -1.138713   1.000000
    133         -0.833781   1.000000
    134         -0.833778   1.000000
    135         -0.793938   1.000000
    136         -0.793926   1.000000
    137         -0.674044   1.000000
    138         -0.674036   1.000000
    139         -0.657065   1.000000
    140         -0.657053   1.000000
    141         -0.657029   1.000000
    142         -0.657015   1.000000
    143         -0.581751   1.000000
    144         -0.581746   1.000000
    145         -0.516840   1.000000
    146         -0.516835   1.000000
    147         -0.516811   1.000000
    148         -0.516808   1.000000
    149         -0.322558   1.000000
    150         -0.322553   1.000000
    151         -0.186387   1.000000
    152         -0.186383   1.000000
    153         -0.145731   1.000000
    154         -0.145729   1.000000
    155          0.024565   1.000000
    156          0.024593   1.000000
    157          0.148367   1.000000
    158          0.148368   1.000000
    159          0.241154   1.000000
    160          0.241163   1.000000
    161          0.253564   1.000000
    162          0.253567   1.000000
    163          0.253607   1.000000
    164          0.253608   1.000000
    165          0.299522   1.000000
    166          0.299547   1.000000
    167          0.451619   1.000000
    168          0.451624   1.000000
    169          0.524653   1.000000
    170          0.524666   1.000000
    171          0.524716   1.000000
    172          0.524726   1.000000
    173          0.805227   1.000000
    174          0.805240   1.000000
    175          0.869599   1.000000
    176          0.869601   1.000000
    177          1.085954   1.000000
    178          1.085958   1.000000
    179          1.715481   1.000000
    180          1.715495   1.000000
    181          2.063713   1.000000
    182          2.063718   1.000000
    183          2.273605   0.999975
    184          2.273607   0.999975
    185          2.374418   0.995744
    186          2.374420   0.995744
    187          2.474036   0.889191
    188          2.474038   0.889186
    189          2.481898   0.866727
    190          2.481898   0.866727
    191          2.661962   0.075581
    192          2.661964   0.075578
    193          2.674104   0.054011
    194          2.674116   0.053993
    195          2.674133   0.053966
    196          2.674140   0.053955
    197          2.687578   0.036113
    198          2.687578   0.036112
    199          2.725294   0.009874
    200          2.725297   0.009873
    201          2.725300   0.009872
    202          2.725303   0.009871
    203          2.868041   0.000007
    204          2.868042   0.000007
    205          4.287976   0.000000
    206          4.287980   0.000000
    207          5.397336   0.000000
    208          5.397338   0.000000
    209          5.620632   0.000000
    210          5.620639   0.000000
    211          5.930316   0.000000
    212          5.930325   0.000000
    213          6.029886   0.000000
    214          6.029894   0.000000
    215          6.594275   0.000000
    216          6.594286   0.000000
    217          6.594322   0.000000
    218          6.594334   0.000000
    219          6.606605   0.000000
    220          6.606606   0.000000
    221          6.618666   0.000000
    222          6.618667   0.000000
    223          6.801869   0.000000
    224          6.801872   0.000000
    225          7.145551   0.000000
    226          7.145555   0.000000
    227          7.149207   0.000000
    228          7.149222   0.000000
    229          7.186104   0.000000
    230          7.186109   0.000000
    231          7.186130   0.000000
    232          7.186137   0.000000
    233          7.297577   0.000000
    234          7.297580   0.000000
    235          7.416905   0.000000
    236          7.416914   0.000000
    237          7.416933   0.000000
    238          7.416948   0.000000
    239          7.417934   0.000000
    240          7.417943   0.000000
    241          7.695716   0.000000
 
  0.0000000E+00  0.3333333E+00  0.0000000E+00  0.1666667E+00
      1        -13.273881   1.000000
      2        -12.924074   1.000000
      3        -12.337208   1.000000
      4        -11.993578   1.000000
      5        -11.912508   1.000000
      6        -11.912379   1.000000
      7        -11.594434   1.000000
      8        -11.594378   1.000000
      9        -11.594304   1.000000
     10        -11.381875   1.000000
     11        -11.051636   1.000000
     12        -11.008311   1.000000
     13        -11.008186   1.000000
     14        -10.731766   1.000000
     15        -10.705126   1.000000
     16        -10.705054   1.000000
     17        -10.705000   1.000000
     18        -10.444424   1.000000
     19        -10.444313   1.000000
     20        -10.122689   1.000000
     21        -10.122567   1.000000
     22         -9.932403   1.000000
     23         -9.925169   1.000000
     24         -9.848814   1.000000
     25         -9.848734   1.000000
     26         -9.848686   1.000000
     27         -9.790719   1.000000
     28         -9.790631   1.000000
     29         -9.668194   1.000000
     30         -9.668089   1.000000
     31         -9.604647   1.000000
     32         -9.210527   1.000000
     33         -9.210444   1.000000
     34         -9.208614   1.000000
     35         -8.975097   1.000000
     36         -8.975000   1.000000
     37         -8.724563   1.000000
     38         -8.724432   1.000000
     39         -8.573299   1.000000
     40         -8.573210   1.000000
     41         -8.481854   1.000000
     42         -8.481794   1.000000
     43         -8.481721   1.000000
     44         -8.018457   1.000000
     45         -7.841573   1.000000
     46         -7.841483   1.000000
     47         -7.702422   1.000000
     48         -7.702345   1.000000
     49         -6.137203   1.000000
     50         -5.902671   1.000000
     51         -5.902654   1.000000
     52         -5.898603   1.000000
     53         -5.898562   1.000000
     54         -5.715593   1.000000
     55         -5.620613   1.000000
     56         -5.498385   1.000000
     57         -5.498338   1.000000
     58         -5.442226   1.000000
     59         -5.410435   1.000000
     60         -5.410414   1.000000
     61         -5.282165   1.000000
     62         -5.282162   1.000000
     63         -5.282103   1.000000
     64         -5.027312   1.000000
     65         -5.021374   1.000000
     66         -5.021342   1.000000
     67         -4.972436   1.000000
     68         -4.972375   1.000000
     69         -4.914621   1.000000
     70         -4.914613   1.000000
     71         -4.721400   1.000000
     72         -4.721391   1.000000
     73         -4.721380   1.000000
     74         -4.303295   1.000000
     75         -4.303244   1.000000