srun: ROUTE: split_hostlist: hl=b01r3n10 tree_width 0
 running on    4 total cores
 distrk:  each k-point on    1 cores,    4 groups
 distr:  one band on    1 cores,    1 groups
 HIP runtime initialized ...    4 DCUs will be used
 Created    4 streams on each DCU
 vasp.6.3.2 27Jun22 (build Mar 15 2023 15:45:48) complex                        
  
 POSCAR found type information on POSCAR C Si
 POSCAR found :  2 types and      96 ions
 Reading from existing POTCAR
 scaLAPACK will be used selectively (only on CPU)
 Reading from existing POTCAR
 LDA part: xc-table for Pade appr. of Perdew
 POSCAR found type information on POSCAR C Si
 POSCAR found :  2 types and      96 ions
 Optimize memory usage for KPAR
 POSCAR, INCAR and KPOINTS ok, starting setup
 FFT: planning ... GRIDC
 FFT: planning ... GRID_SOFT
 FFT: planning ... GRID
 WAVECAR not read
 entering main loop
       N       E                     dE             d eps       ncg     rms          rms(c)
DAV:   1     0.209311869612E+04    0.20931E+04   -0.16352E+05  2892   0.136E+03
DAV:   2    -0.462390875340E+03   -0.25555E+04   -0.24410E+04  3714   0.271E+02
DAV:   3    -0.765060160391E+03   -0.30267E+03   -0.29756E+03  3656   0.878E+01
DAV:   4    -0.781839607831E+03   -0.16779E+02   -0.16732E+02  3928   0.221E+01
DAV:   5    -0.782382344967E+03   -0.54274E+00   -0.54223E+00  3912   0.382E+00    0.501E+01
RMM:   6    -0.698573633150E+03    0.83809E+02   -0.28951E+02  2915   0.234E+01    0.276E+01
RMM:   7    -0.678922519932E+03    0.19651E+02   -0.55894E+01  2979   0.133E+01    0.165E+01
RMM:   8    -0.678359304189E+03    0.56322E+00   -0.27482E+01  3258   0.762E+00    0.172E+01
RMM:   9    -0.677609603825E+03    0.74970E+00   -0.36174E+00  2927   0.335E+00    0.133E+01
RMM:  10    -0.673210675995E+03    0.43989E+01   -0.21862E+00  2929   0.248E+00    0.563E+00
RMM:  11    -0.672961736173E+03    0.24894E+00   -0.36902E-01  3285   0.104E+00    0.460E+00
RMM:  12    -0.672882256875E+03    0.79479E-01   -0.96863E-01  3034   0.129E+00    0.463E+00
RMM:  13    -0.672695674268E+03    0.18658E+00   -0.20902E-01  2912   0.720E-01    0.321E+00
RMM:  14    -0.672569398076E+03    0.12628E+00   -0.58893E-02  3036   0.320E-01    0.180E+00
RMM:  15    -0.672534676390E+03    0.34722E-01   -0.34798E-02  3247   0.202E-01    0.704E-01
RMM:  16    -0.672577915819E+03   -0.43239E-01   -0.71208E-02  3294   0.328E-01    0.194E+00
RMM:  17    -0.672546208467E+03    0.31707E-01   -0.53218E-03  2960   0.120E-01    0.820E-01
RMM:  18    -0.672547911788E+03   -0.17033E-02   -0.48688E-03  3149   0.853E-02    0.105E-01
RMM:  19    -0.672553070363E+03   -0.51586E-02   -0.16486E-03  3012   0.630E-02    0.366E-01
RMM:  20    -0.672554117799E+03   -0.10474E-02   -0.11958E-03  3213   0.484E-02    0.108E-01
RMM:  21    -0.672554755699E+03   -0.63790E-03   -0.23313E-04  3019   0.210E-02    0.149E-02
RMM:  22    -0.672555409663E+03   -0.65396E-03   -0.24588E-04  3082   0.145E-02    0.696E-02
RMM:  23    -0.672555501958E+03   -0.92295E-04   -0.52813E-05  2904   0.690E-03    0.310E-02
RMM:  24    -0.672555571222E+03   -0.69264E-04   -0.30407E-05  2897   0.545E-03    0.221E-03
RMM:  25    -0.672555596738E+03   -0.25516E-04   -0.62423E-06  2125   0.301E-03    0.176E-03
RMM:  26    -0.672555606685E+03   -0.99473E-05   -0.22243E-06  1922   0.165E-03    0.174E-03
RMM:  27    -0.672555607319E+03   -0.63439E-06   -0.32610E-07  1565   0.837E-04
   1 F= -.67255561E+03 E0= -.67235800E+03  d E =-.672556E+03
 curvature:   0.00 expect dE= 0.000E+00 dE for cont linesearch  0.000E+00
 trial: gam= 0.00000 g(F)=  0.753E+01 g(S)=  0.000E+00 ort = 0.000E+00 (trialstep = 0.100E+01)
 search vector abs. value=  0.753E+01
 bond charge predicted
       N       E                     dE             d eps       ncg     rms          rms(c)
DAV:   1    -0.676378352170E+03   -0.38227E+01   -0.32900E+02  2956   0.328E+01    0.339E+00
RMM:   2    -0.676637204496E+03   -0.25885E+00   -0.52658E+00  2929   0.456E+00    0.384E+00
RMM:   3    -0.676640620690E+03   -0.34162E-02   -0.11110E+00  3261   0.193E+00    0.284E+00
RMM:   4    -0.676418716275E+03    0.22190E+00   -0.72658E-01  2928   0.126E+00    0.181E+00
RMM:   5    -0.676391044740E+03    0.27672E-01   -0.43670E-01  3064   0.938E-01    0.975E-01
RMM:   6    -0.676370199479E+03    0.20845E-01   -0.51984E-02  3002   0.377E-01    0.316E-01
RMM:   7    -0.676368708364E+03    0.14911E-02   -0.24127E-02  3126   0.234E-01    0.161E-01
RMM:   8    -0.676367210472E+03    0.14979E-02   -0.49112E-03  3369   0.113E-01    0.855E-02
RMM:   9    -0.676367155332E+03    0.55140E-04   -0.29219E-03  2972   0.664E-02    0.513E-02
RMM:  10    -0.676369361204E+03   -0.22059E-02   -0.50437E-03  3241   0.799E-02    0.883E-02
RMM:  11    -0.676369505458E+03   -0.14425E-03   -0.83272E-04  2936   0.400E-02    0.348E-02
RMM:  12    -0.676371371038E+03   -0.18656E-02   -0.28328E-03  3442   0.639E-02    0.920E-02
RMM:  13    -0.676371315828E+03    0.55211E-04   -0.28851E-04  2895   0.244E-02    0.567E-02
RMM:  14    -0.676371448053E+03   -0.13223E-03   -0.84075E-04  3334   0.332E-02    0.146E-02
RMM:  15    -0.676371584218E+03   -0.13616E-03   -0.15407E-04  2915   0.157E-02    0.176E-02
RMM:  16    -0.676371580640E+03    0.35782E-05   -0.34244E-05  2632   0.653E-03    0.967E-03
RMM:  17    -0.676371623555E+03   -0.42915E-04   -0.43720E-05  2898   0.782E-03    0.386E-03
RMM:  18    -0.676371676413E+03   -0.52858E-04   -0.14274E-05  2307   0.401E-03    0.193E-03
RMM:  19    -0.676371679178E+03   -0.27646E-05   -0.15705E-06  1865   0.159E-03    0.845E-04
RMM:  20    -0.676371680685E+03   -0.15076E-05   -0.81293E-07  1620   0.109E-03    0.221E-04
RMM:  21    -0.676371680741E+03   -0.55446E-07   -0.12604E-07  1048   0.574E-04
   2 F= -.67637168E+03 E0= -.67617372E+03  d E =-.381607E+01
 trial-energy change:   -3.816073  1 .order   -3.798677   -7.531697   -0.065657
 step:   1.0087(harm=  1.0088)  dis= 0.13431  next Energy=  -676.371965 (dE=-0.382E+01)
 bond charge predicted
       N       E                     dE             d eps       ncg     rms          rms(c)
DAV:   1    -0.676372021311E+03   -0.34063E-03   -0.25166E-02  3131   0.306E-01    0.297E-02
RMM:   2    -0.676372069158E+03   -0.47847E-04   -0.28627E-04  2920   0.346E-02    0.695E-02
RMM:   3    -0.676372027006E+03    0.42152E-04   -0.54525E-05  3022   0.140E-02    0.231E-02
RMM:   4    -0.676372012957E+03    0.14049E-04   -0.75071E-05  2796   0.125E-02    0.110E-02
RMM:   5    -0.676372011095E+03    0.18625E-05   -0.11953E-05  2683   0.562E-03    0.433E-03
RMM:   6    -0.676372010511E+03    0.58379E-06   -0.25634E-06  1938   0.256E-03
   3 F= -.67637201E+03 E0= -.67617395E+03  d E =-.381640E+01
 curvature:  -0.50 expect dE=-0.324E-01 dE for cont linesearch -0.687E-05
 trial: gam= 0.00717 g(F)=  0.642E-01 g(S)=  0.000E+00 ort = 0.101E-01 (trialstep = 0.100E+01)
 search vector abs. value=  0.647E-01
 bond charge predicted
       N       E                     dE             d eps       ncg     rms          rms(c)
DAV:   1    -0.676428085341E+03   -0.56074E-01   -0.54712E+00  3088   0.417E+00    0.530E-01
RMM:   2    -0.676487591815E+03   -0.59506E-01   -0.81733E-02  2926   0.543E-01    0.228E+00
RMM:   3    -0.676429958768E+03    0.57633E-01   -0.17752E-02  3097   0.247E-01    0.276E-01
RMM:   4    -0.676429989207E+03   -0.30439E-04   -0.11115E-02  3033   0.165E-01    0.608E-02
RMM:   5    -0.676429979092E+03    0.10115E-04   -0.10925E-03  3096   0.634E-02    0.354E-02
RMM:   6    -0.676430006584E+03   -0.27491E-04   -0.31776E-04  3161   0.276E-02    0.209E-02
RMM:   7    -0.676430016849E+03   -0.10265E-04   -0.53667E-05  3065   0.124E-02    0.553E-03
RMM:   8    -0.676430025595E+03   -0.87465E-05   -0.14329E-05  2726   0.625E-03    0.194E-03
RMM:   9    -0.676430031101E+03   -0.55060E-05   -0.38850E-06  2133   0.320E-03    0.171E-03
RMM:  10    -0.676430037163E+03   -0.60617E-05   -0.10917E-06  1747   0.173E-03    0.105E-03
RMM:  11    -0.676430042883E+03   -0.57203E-05   -0.83183E-07  1695   0.118E-03    0.693E-04
RMM:  12    -0.676430046276E+03   -0.33930E-05   -0.66547E-07  1611   0.959E-04    0.461E-04
RMM:  13    -0.676430047461E+03   -0.11848E-05   -0.37722E-07  1423   0.714E-04    0.297E-04
RMM:  14    -0.676430047558E+03   -0.96548E-07   -0.80096E-08   788   0.466E-04
   4 F= -.67643005E+03 E0= -.67623153E+03  d E =-.580370E-01
 ZBRENT: can't locate minimum, use default step
 trial-energy change:   -0.058037  1 .order   -0.058037   -0.064336   -0.051738
 step:   4.0069(harm=  5.1159)  dis= 0.00365  next Energy=  -676.536294 (dE=-0.164E+00)
 bond charge predicted
       N       E                     dE             d eps       ncg     rms          rms(c)
DAV:   1    -0.676508465949E+03   -0.78418E-01   -0.49324E+01  3014   0.125E+01    0.160E+00
RMM:   2    -0.677004413286E+03   -0.49595E+00   -0.76425E-01  2928   0.168E+00    0.625E+00
RMM:   3    -0.676527908563E+03    0.47650E+00   -0.14470E-01  3069   0.723E-01    0.804E-01
RMM:   4    -0.676523803594E+03    0.41050E-02   -0.96466E-02  3028   0.478E-01    0.205E-01
RMM:   5    -0.676523625680E+03    0.17791E-03   -0.10095E-02  3135   0.189E-01    0.103E-01
RMM:   6    -0.676523810439E+03   -0.18476E-03   -0.23686E-03  3255   0.773E-02    0.590E-02
RMM:   7    -0.676523874793E+03   -0.64353E-04   -0.44351E-04  3210   0.355E-02    0.143E-02
RMM:   8    -0.676523912440E+03   -0.37647E-04   -0.10804E-04  3287   0.171E-02    0.531E-03
RMM:   9    -0.676523937028E+03   -0.24588E-04   -0.29153E-05  2953   0.781E-03    0.406E-03
RMM:  10    -0.676523959294E+03   -0.22266E-04   -0.58367E-06  2377   0.357E-03    0.285E-03
RMM:  11    -0.676523985238E+03   -0.25944E-04   -0.48156E-06  2038   0.252E-03    0.253E-03
RMM:  12    -0.676523997254E+03   -0.12015E-04   -0.20199E-06  1895   0.168E-03    0.111E-03
RMM:  13    -0.676524008638E+03   -0.11384E-04   -0.25154E-06  1929   0.143E-03    0.736E-04
RMM:  14    -0.676524010196E+03   -0.15576E-05   -0.39237E-07  1387   0.771E-04    0.732E-04
RMM:  15    -0.676524011018E+03   -0.82223E-06   -0.17994E-07  1071   0.600E-04
   5 F= -.67652401E+03 E0= -.67632431E+03  d E =-.152001E+00
 curvature:  -2.39 expect dE=-0.999E-01 dE for cont linesearch -0.369E-02
 ZBRENT: extrapolating
 opt :   4.7286  next Energy=  -676.527619 (dE=-0.156E+00)
 bond charge predicted
       N       E                     dE             d eps       ncg     rms          rms(c)
DAV:   1    -0.676526347645E+03   -0.23374E-02   -0.28541E+00  3070   0.304E+00    0.377E-01
RMM:   2    -0.676553838453E+03   -0.27491E-01   -0.42605E-02  2924   0.397E-01    0.155E+00
RMM:   3    -0.676527436760E+03    0.26402E-01   -0.92534E-03  3094   0.182E-01    0.201E-01
RMM:   4    -0.676527393934E+03    0.42826E-04   -0.59126E-03  3031   0.122E-01    0.461E-02
RMM:   5    -0.676527363225E+03    0.30709E-04   -0.58129E-04  3085   0.464E-02    0.260E-02
RMM:   6    -0.676527374124E+03   -0.10899E-04   -0.17048E-04  3131   0.204E-02    0.155E-02
RMM:   7    -0.676527377796E+03   -0.36722E-05   -0.28528E-05  3001   0.899E-03    0.415E-03
RMM:   8    -0.676527381898E+03   -0.41024E-05   -0.73920E-06  2533   0.458E-03    0.140E-03
RMM:   9    -0.676527384341E+03   -0.24422E-05   -0.18685E-06  1814   0.240E-03    0.108E-03
RMM:  10    -0.676527386984E+03   -0.26436E-05   -0.60702E-07  1691   0.138E-03    0.607E-04
RMM:  11    -0.676527389336E+03   -0.23520E-05   -0.36738E-07  1538   0.894E-04    0.444E-04
RMM:  12    -0.676527390987E+03   -0.16504E-05   -0.34964E-07  1505   0.754E-04    0.335E-04
RMM:  13    -0.676527391525E+03   -0.53806E-06   -0.15451E-07  1028   0.562E-04
   6 F= -.67652739E+03 E0= -.67632745E+03  d E =-.155381E+00
 curvature:  -2.33 expect dE=-0.130E+00 dE for cont linesearch -0.905E-05
 trial: gam= 0.85839 g(F)=  0.557E-01 g(S)=  0.000E+00 ort =-0.501E-03 (trialstep = 0.110E+01)
 search vector abs. value=  0.103E+00
 bond charge predicted
       N       E                     dE             d eps       ncg     rms          rms(c)
DAV:   1    -0.676503967545E+03    0.23423E-01   -0.81737E+00  3008   0.530E+00    0.593E-01
RMM:   2    -0.676552375749E+03   -0.48408E-01   -0.17072E-01  2910   0.774E-01    0.190E+00
RMM:   3    -0.676515606948E+03    0.36769E-01   -0.39834E-02  3209   0.341E-01    0.390E-01
RMM:   4    -0.676512764208E+03    0.28427E-02   -0.16203E-02  3028   0.215E-01    0.920E-02
RMM:   5    -0.676512782136E+03   -0.17928E-04   -0.20610E-03  3174   0.861E-02    0.457E-02
RMM:   6    -0.676512820125E+03   -0.37990E-04   -0.59636E-04  3240   0.404E-02    0.233E-02
RMM:   7    -0.676512823258E+03   -0.31332E-05   -0.11951E-04  3112   0.185E-02    0.952E-03
RMM:   8    -0.676512822262E+03    0.99651E-06   -0.33510E-05  2956   0.905E-03    0.334E-03
RMM:   9    -0.676512822395E+03   -0.13326E-06   -0.96267E-06  2586   0.459E-03
   7 F= -.67651282E+03 E0= -.67631258E+03  d E =0.145691E-01
 trial-energy change:    0.014569  1 .order    0.013881   -0.060959    0.088721
 step:   0.4415(harm=  0.4488)  dis= 0.00425  next Energy=  -676.539559 (dE=-0.122E-01)
 bond charge predicted
       N       E                     dE             d eps       ncg     rms          rms(c)
DAV:   1    -0.676536252744E+03   -0.23430E-01   -0.29280E+00  3020   0.317E+00    0.351E-01
RMM:   2    -0.676552068445E+03   -0.15816E-01   -0.60345E-02  2907   0.461E-01    0.108E+00
RMM:   3    -0.676540521966E+03    0.11546E-01   -0.14740E-02  3211   0.209E-01    0.237E-01
RMM:   4    -0.676539486747E+03    0.10352E-02   -0.58352E-03  3024   0.131E-01    0.656E-02
RMM:   5    -0.676539489113E+03   -0.23653E-05   -0.75168E-04  3151   0.524E-02    0.271E-02
RMM:   6    -0.676539509063E+03   -0.19950E-04   -0.22955E-04  3198   0.250E-02    0.138E-02
RMM:   7    -0.676539512850E+03   -0.37871E-05   -0.44815E-05  3014   0.113E-02    0.600E-03
RMM:   8    -0.676539513326E+03   -0.47566E-06   -0.11780E-05  2628   0.549E-03    0.198E-03
RMM:   9    -0.676539513459E+03   -0.13352E-06   -0.34067E-06  2060   0.293E-03
   8 F= -.67653951E+03 E0= -.67633945E+03  d E =-.121219E-01
 curvature:  -0.42 expect dE=-0.634E-03 dE for cont linesearch -0.134E-07
 trial: gam= 0.01163 g(F)=  0.153E-02 g(S)=  0.000E+00 ort = 0.575E-04 (trialstep = 0.970E+00)
 search vector abs. value=  0.154E-02
 bond charge predicted
       N       E                     dE             d eps       ncg     rms          rms(c)
DAV:   1    -0.676540348148E+03   -0.83482E-03   -0.58561E-02  3016   0.474E-01    0.486E-02
RMM:   2    -0.676540525218E+03   -0.17707E-03   -0.76010E-04  2926   0.572E-02    0.135E-01
RMM:   3    -0.676540359039E+03    0.16618E-03   -0.14550E-04  3180   0.234E-02    0.363E-02
RMM:   4    -0.676540313458E+03    0.45581E-04   -0.19268E-04  2912   0.204E-02    0.178E-02
RMM:   5    -0.676540303247E+03    0.10211E-04   -0.32272E-05  2945   0.916E-03    0.729E-03
RMM:   6    -0.676540296563E+03    0.66839E-05   -0.82211E-06  2536   0.416E-03    0.330E-03
RMM:   7    -0.676540296465E+03    0.98353E-07   -0.11692E-06  1695   0.206E-03
   9 F= -.67654030E+03 E0= -.67634040E+03  d E =-.783006E-03
 trial-energy change:   -0.000783  1 .order   -0.000814   -0.001480   -0.000148
 step:   1.0983(harm=  1.0779)  dis= 0.00164  next Energy=  -676.540306 (dE=-0.793E-03)
 reached required accuracy - stopping structural energy minimisation
 PROFILE, used timers:     293
