<?xml version="1.0" encoding="ISO-8859-1"?>
<modeling>
 <generator>
  <i name="program" type="string">vasp </i>
  <i name="version" type="string">6.3.2  </i>
  <i name="subversion" type="string">27Jun22 (build Mar 15 2023 15:45:48) complex                          parallel </i>
  <i name="platform" type="string">LinuxIFC </i>
  <i name="date" type="string">2024 07 17 </i>
  <i name="time" type="string">02:26:16 </i>
 </generator>
 <incar>
  <i type="string" name="SYSTEM">ni3al</i>
  <i type="int" name="ISTART">     0</i>
  <i type="string" name="PREC">Accurate</i>
  <i type="string" name="ALGO">Fast</i>
  <i name="AMIN">      0.01000000</i>
  <i type="int" name="ICHARG">     2</i>
  <i type="int" name="NELM">   150</i>
  <i type="int" name="IBRION">     2</i>
  <i name="EDIFF">      0.00000100</i>
  <i name="EDIFFG">     -0.01000000</i>
  <i type="int" name="NSW">   300</i>
  <i type="int" name="ISIF">     2</i>
  <i name="ENCUT">    530.00000000</i>
  <i type="string" name="LREAL">Auto</i>
  <i type="int" name="ISMEAR">     0</i>
  <i name="SIGMA">      0.10000000</i>
  <i type="int" name="LMAXMIX">     4</i>
  <i type="logical" name="LWAVE"> F  </i>
  <i type="logical" name="LCHARG"> F  </i>
 </incar>
 <primitive_cell>
  <structure name="primitive_cell" >
   <crystal>
    <varray name="basis" >
     <v>      -3.09476019       0.00000000       0.00000000 </v>
     <v>       1.54738009      -2.68013550       0.00000000 </v>
     <v>       0.00000000       0.00000000      18.22724100 </v>
    </varray>
    <i name="volume">    151.18360211 </i>
    <varray name="rec_basis" >
     <v>      -0.32312681      -0.18655773       0.00000000 </v>
     <v>       0.00000000      -0.37311546       0.00000000 </v>
     <v>       0.00000000       0.00000000       0.05486294 </v>
    </varray>
   </crystal>
   <varray name="positions" >
    <v>       0.00000000       0.00000000       0.31213000 </v>
    <v>       0.33333400       0.66666800       0.45137100 </v>
    <v>       0.66666800       0.33333600       0.03482200 </v>
    <v>       0.33333400       0.66666800       0.17351800 </v>
    <v>       0.00000000       0.00000000       0.00000000 </v>
    <v>       0.00000000       0.00000000       0.41654900 </v>
    <v>       0.66666800       0.33333600       0.13894900 </v>
    <v>       0.33333400       0.66666800       0.27764900 </v>
   </varray>
  </structure>
  <varray name="primitive_index" >
   <v type="int" >        1 </v>
   <v type="int" >       27 </v>
   <v type="int" >        5 </v>
   <v type="int" >       31 </v>
   <v type="int" >       49 </v>
   <v type="int" >       51 </v>
   <v type="int" >       53 </v>
   <v type="int" >       79 </v>
  </varray>
 </primitive_cell>
 <kpoints>
  <generation param="Gamma">
   <v type="int" name="divisions">       4        3        1 </v>
   <v name="usershift">      0.00000000       0.00000000       0.00000000 </v>
   <v name="genvec1">      0.25000000       0.00000000       0.00000000 </v>
   <v name="genvec2">      0.00000000       0.33333333       0.00000000 </v>
   <v name="genvec3">      0.00000000       0.00000000       1.00000000 </v>
   <v name="shift">      0.00000000       0.00000000       0.00000000 </v>
  </generation>
  <varray name="kpointlist" >
   <v>       0.00000000       0.00000000       0.00000000 </v>
   <v>       0.25000000       0.00000000       0.00000000 </v>
   <v>       0.50000000       0.00000000       0.00000000 </v>
   <v>       0.00000000       0.33333333       0.00000000 </v>
   <v>       0.25000000       0.33333333       0.00000000 </v>
   <v>       0.50000000       0.33333333       0.00000000 </v>
  </varray>
  <varray name="weights" >
   <v>       0.08333333 </v>
   <v>       0.16666667 </v>
   <v>       0.08333333 </v>
   <v>       0.16666667 </v>
   <v>       0.33333333 </v>
   <v>       0.16666667 </v>
  </varray>
 </kpoints>
 <parameters>
  <separator name="general" >
   <i type="string" name="SYSTEM">ni3al</i>
   <i type="logical" name="LCOMPAT"> F  </i>
  </separator>
  <separator name="electronic" >
   <i type="string" name="PREC">accura</i>
   <i name="ENMAX">    530.00000000</i>
   <i name="ENAUG">    644.87300000</i>
   <i name="EDIFF">      0.00000100</i>
   <i type="int" name="IALGO">    68</i>
   <i type="int" name="IWAVPR">    11</i>
   <i type="int" name="NBANDS">   241</i>
   <i type="int" name="NBANDSLOW">    -1</i>
   <i type="int" name="NBANDSHIGH">    -1</i>
   <i name="NELECT">    384.00000000</i>
   <i type="int" name="TURBO">     0</i>
   <i type="int" name="IRESTART">     0</i>
   <i type="int" name="NREBOOT">     0</i>
   <i type="int" name="NMIN">     0</i>
   <i name="EREF">      0.00000000</i>
   <separator name="electronic smearing" >
    <i type="int" name="ISMEAR">     0</i>
    <i name="SIGMA">      0.10000000</i>
    <i name="KSPACING">      0.50000000</i>
    <i type="logical" name="KGAMMA"> T  </i>
    <i type="logical" name="KBLOWUP"> T  </i>
   </separator>
   <separator name="electronic projectors" >
    <i type="logical" name="LREAL"> T  </i>
    <v name="ROPT">     -0.00025000     -0.00025000</v>
    <i type="int" name="LMAXPAW">  -100</i>
    <i type="int" name="LMAXMIX">     4</i>
    <i type="logical" name="NLSPLINE"> F  </i>
   </separator>
   <separator name="electronic startup" >
    <i type="int" name="ISTART">     0</i>
    <i type="int" name="ICHARG">     2</i>
    <i type="int" name="INIWAV">     1</i>
   </separator>
   <separator name="electronic spin" >
    <i type="int" name="ISPIN">     1</i>
    <i type="logical" name="LNONCOLLINEAR"> F  </i>
    <v name="MAGMOM">      1.00000000      1.00000000      1.00000000      1.00000000      1.00000000      1.00000000      1.00000000      1.00000000      1.00000000      1.00000000      1.00000000      1.00000000      1.00000000      1.00000000      1.00000000      1.00000000      1.00000000      1.00000000      1.00000000      1.00000000
      1.00000000      1.00000000      1.00000000      1.00000000      1.00000000      1.00000000      1.00000000      1.00000000      1.00000000      1.00000000      1.00000000      1.00000000      1.00000000      1.00000000      1.00000000      1.00000000      1.00000000      1.00000000      1.00000000      1.00000000
      1.00000000      1.00000000      1.00000000      1.00000000      1.00000000      1.00000000      1.00000000      1.00000000      1.00000000      1.00000000      1.00000000      1.00000000      1.00000000      1.00000000      1.00000000      1.00000000      1.00000000      1.00000000      1.00000000      1.00000000
      1.00000000      1.00000000      1.00000000      1.00000000      1.00000000      1.00000000      1.00000000      1.00000000      1.00000000      1.00000000      1.00000000      1.00000000      1.00000000      1.00000000      1.00000000      1.00000000      1.00000000      1.00000000      1.00000000      1.00000000
      1.00000000      1.00000000      1.00000000      1.00000000      1.00000000      1.00000000      1.00000000      1.00000000      1.00000000      1.00000000      1.00000000      1.00000000      1.00000000      1.00000000      1.00000000      1.00000000</v>
    <i name="NUPDOWN">     -1.00000000</i>
    <i type="logical" name="LSORBIT"> F  </i>
    <v name="SAXIS">      0.00000000      0.00000000      1.00000000</v>
    <i type="logical" name="LSPIRAL"> F  </i>
    <v name="QSPIRAL">      0.00000000      0.00000000      0.00000000</v>
    <i type="logical" name="LZEROZ"> F  </i>
   </separator>
   <separator name="electronic exchange-correlation" >
    <i type="logical" name="LASPH"> F  </i>
    <i type="logical" name="LMETAGGA"> F  </i>
   </separator>
   <separator name="electronic convergence" >
    <i type="int" name="NELM">   150</i>
    <i type="int" name="NELMDL">    -5</i>
    <i type="int" name="NELMIN">     2</i>
    <i name="ENINI">    530.00000000</i>
    <separator name="electronic convergence detail" >
     <i type="logical" name="LDIAG"> T  </i>
     <i type="logical" name="LSUBROT"> F  </i>
     <i name="WEIMIN">      0.00100000</i>
     <i name="EBREAK">      0.00000000</i>
     <i name="DEPER">      0.30000000</i>
     <i type="int" name="NRMM">     4</i>
     <i name="TIME">      0.40000000</i>
    </separator>
   </separator>
   <separator name="electronic mixer" >
    <i name="AMIX">      0.40000000</i>
    <i name="BMIX">      1.00000000</i>
    <i name="AMIN">      0.01000000</i>
    <i name="AMIX_MAG">      1.60000000</i>
    <i name="BMIX_MAG">      1.00000000</i>
    <separator name="electronic mixer details" >
     <i type="int" name="IMIX">     4</i>
     <i type="logical" name="MIXFIRST"> F  </i>
     <i type="int" name="MAXMIX">   -45</i>
     <i name="WC">    100.00000000</i>
     <i type="int" name="INIMIX">     1</i>
     <i type="int" name="MIXPRE">     1</i>
     <i type="int" name="MREMOVE">     5</i>
    </separator>
   </separator>
   <separator name="electronic dipolcorrection" >
    <i type="logical" name="LDIPOL"> F  </i>
    <i type="logical" name="LMONO"> F  </i>
    <i type="int" name="IDIPOL">     0</i>
    <i name="EPSILON">      1.00000000</i>
    <v name="DIPOL">   -100.00000000   -100.00000000   -100.00000000</v>
    <i name="EFIELD">      0.00000000</i>
   </separator>
  </separator>
  <separator name="grids" >
   <i type="int" name="NGX">    70</i>
   <i type="int" name="NGY">    80</i>
   <i type="int" name="NGZ">   140</i>
   <i type="int" name="NGXF">   140</i>
   <i type="int" name="NGYF">   160</i>
   <i type="int" name="NGZF">   280</i>
   <i type="logical" name="ADDGRID"> F  </i>
  </separator>
  <separator name="ionic" >
   <i type="int" name="NSW">   300</i>
   <i type="int" name="IBRION">     2</i>
   <i type="int" name="MDALGO">     0</i>
   <i type="int" name="ISIF">     2</i>
   <i name="PSTRESS">      0.00000000</i>
   <i name="EDIFFG">     -0.01000000</i>
   <i type="int" name="NFREE">     1</i>
   <i name="POTIM">      0.50000000</i>
   <i name="SMASS">     -3.00000000</i>
   <i name="SCALEE">      1.00000000</i>
  </separator>
  <separator name="ionic md" >
   <i name="TEBEG">      0.00010000</i>
   <i name="TEEND">      0.00010000</i>
   <i type="int" name="NBLOCK">     1</i>
   <i type="int" name="KBLOCK">   300</i>
   <i type="int" name="NPACO">   256</i>
   <i name="APACO">     10.00000000</i>
  </separator>
  <separator name="symmetry" >
   <i type="int" name="ISYM">     2</i>
   <i name="SYMPREC">      0.00001000</i>
  </separator>
  <separator name="dos" >
   <i type="int" name="LORBIT">     0</i>
   <v name="RWIGS">     -1.00000000     -1.00000000</v>
   <i type="int" name="NEDOS">   301</i>
   <i name="EMIN">     10.00000000</i>
   <i name="EMAX">    -10.00000000</i>
   <i name="EFERMI">      0.00000000</i>
  </separator>
  <separator name="writing" >
   <i type="int" name="NWRITE">     2</i>
   <i type="logical" name="LWAVE"> F  </i>
   <i type="logical" name="LDOWNSAMPLE"> F  </i>
   <i type="logical" name="LCHARG"> F  </i>
   <i type="logical" name="LPARD"> F  </i>
   <i type="logical" name="LVTOT"> F  </i>
   <i type="logical" name="LVHAR"> F  </i>
   <i type="logical" name="LELF"> F  </i>
   <i type="logical" name="LOPTICS"> F  </i>
   <v name="STM">      0.00000000      0.00000000      0.00000000      0.00000000      0.00000000      0.00000000      0.00000000</v>
  </separator>
  <separator name="performance" >
   <i type="int" name="NPAR">     1</i>
   <i type="int" name="NSIM">     4</i>
   <i type="int" name="NBLK">    -1</i>
   <i type="logical" name="LPLANE"> T  </i>
   <i type="logical" name="LSCALAPACK"> T  </i>
   <i type="logical" name="LSCAAWARE"> F  </i>
   <i type="logical" name="LSCALU"> F  </i>
   <i type="logical" name="LASYNC"> F  </i>
   <i type="logical" name="LORBITALREAL"> F  </i>
  </separator>
  <separator name="miscellaneous" >
   <i type="int" name="IDIOT">     3</i>
   <i type="int" name="PHON_NSTRUCT">    -1</i>
   <i type="logical" name="LMUSIC"> F  </i>
   <v name="POMASS">     12.01100000     28.08500000</v>
   <v name="DARWINR">      0.00000000      0.00000000</v>
   <v name="DARWINV">      1.00000000      1.00000000</v>
   <i type="logical" name="LCORR"> T  </i>
  </separator>
  <i type="logical" name="GGA_COMPAT"> T  </i>
  <i type="logical" name="LBERRY"> F  </i>
  <i type="int" name="ICORELEVEL">     0</i>
  <i type="logical" name="LDAU"> F  </i>
  <i type="int" name="I_CONSTRAINED_M">     0</i>
  <separator name="electronic exchange-correlation" >
   <i type="string" name="GGA">--</i>
   <i type="int" name="VOSKOWN">     0</i>
   <i type="logical" name="LHFCALC"> F  </i>
   <i type="string" name="PRECFOCK"></i>
   <i type="logical" name="LSYMGRAD"> F  </i>
   <i type="logical" name="LHFONE"> F  </i>
   <i type="logical" name="LRHFCALC"> F  </i>
   <i type="logical" name="LTHOMAS"> F  </i>
   <i type="logical" name="LMODELHF"> F  </i>
   <i type="logical" name="LFOCKACE"> F  </i>
   <i name="ENCUT4O">     -1.00000000</i>
   <i type="int" name="EXXOEP">     0</i>
   <i type="int" name="FOURORBIT">     0</i>
   <i name="AEXX">      0.00000000</i>
   <i name="HFALPHA">      0.00000000</i>
   <i name="MCALPHA">      0.00000000</i>
   <i name="ALDAX">      1.00000000</i>
   <i name="AGGAX">      1.00000000</i>
   <i name="ALDAC">      1.00000000</i>
   <i name="AGGAC">      1.00000000</i>
   <i type="int" name="NKREDX">     1</i>
   <i type="int" name="NKREDY">     1</i>
   <i type="int" name="NKREDZ">     1</i>
   <i type="logical" name="SHIFTRED"> F  </i>
   <i type="logical" name="ODDONLY"> F  </i>
   <i type="logical" name="EVENONLY"> F  </i>
   <i type="int" name="LMAXFOCK">     0</i>
   <i type="int" name="NMAXFOCKAE">     0</i>
   <i type="logical" name="LFOCKAEDFT"> F  </i>
   <i name="HFSCREEN">      0.00000000</i>
   <i name="HFSCREENC">      0.00000000</i>
   <i type="int" name="NBANDSGWLOW">     0</i>
  </separator>
  <separator name="vdW DFT" >
   <i type="logical" name="LUSE_VDW"> F  </i>
   <i name="Zab_VDW">     -0.84910000</i>
   <i name="PARAM1">      0.12340000</i>
   <i name="PARAM2">      1.00000000</i>
   <i name="PARAM3">      0.00000000</i>
  </separator>
  <separator name="model GW" >
   <i type="int" name="MODEL_GW">     0</i>
   <i name="MODEL_EPS0">     11.33874748</i>
   <i name="MODEL_ALPHA">      1.00000000</i>
  </separator>
  <separator name="linear response parameters" >
   <i type="logical" name="LEPSILON"> F  </i>
   <i type="logical" name="LRPA"> F  </i>
   <i type="logical" name="LNABLA"> F  </i>
   <i type="logical" name="LVEL"> F  </i>
   <i name="CSHIFT">      0.10000000</i>
   <i name="OMEGAMAX">     -1.00000000</i>
   <i name="DEG_THRESHOLD">      0.00200000</i>
   <i name="RTIME">     -0.10000000</i>
   <i name="WPLASMAI">      0.00000000</i>
   <v name="DFIELD">      0.00000000      0.00000000      0.00000000</v>
   <v name="WPLASMA">      0.00000000      0.00000000      0.00000000      0.00000000      0.00000000      0.00000000      0.00000000      0.00000000      0.00000000</v>
  </separator>
  <separator name="orbital magnetization" >
   <i type="logical" name="NUCIND"> F  </i>
   <v name="MAGPOS">      0.00000000      0.00000000      0.00000000</v>
   <i type="logical" name="LNICSALL"> T  </i>
   <i type="logical" name="ORBITALMAG"> F  </i>
   <i type="logical" name="LMAGBLOCH"> F  </i>
   <i type="logical" name="LCHIMAG"> F  </i>
   <i type="logical" name="LGAUGE"> T  </i>
   <i type="int" name="MAGATOM">     0</i>
   <v name="MAGDIPOL">      0.00000000      0.00000000      0.00000000</v>
   <v name="AVECCONST">      0.00000000      0.00000000      0.00000000</v>
  </separator>
  <separator name="response functions" >
   <i type="logical" name="LFINITE_TEMPERATURE"> F  </i>
   <i type="logical" name="LADDER"> F  </i>
   <i type="logical" name="LRPAFORCE"> F  </i>
   <i type="logical" name="LFXC"> F  </i>
   <i type="logical" name="LHARTREE"> T  </i>
   <i type="int" name="IBSE">     0</i>
   <v type="int" name="KPOINT">    -1     0     0     0</v>
   <i type="logical" name="LTCTC"> F  </i>
   <i type="logical" name="LTCTE"> F  </i>
   <i type="logical" name="LTETE"> F  </i>
   <i type="logical" name="LTRIPLET"> F  </i>
   <i type="logical" name="LFXCEPS"> F  </i>
   <i type="logical" name="LFXHEG"> F  </i>
   <i type="int" name="NATURALO">     2</i>
   <i type="logical" name="LHOLEGF"> F  </i>
   <i type="logical" name="L2ORDER"> F  </i>
   <i type="logical" name="LDMP1"> F  </i>
   <i type="logical" name="LMP2LT"> F  </i>
   <i type="logical" name="LSMP2LT"> F  </i>
   <i type="logical" name="LGWLF"> F  </i>
   <i name="ENCUTGW">     -2.00000000</i>
   <i name="ENCUTGWSOFT">     -2.00000000</i>
   <i name="ENCUTLF">     -1.00000000</i>
   <i type="logical" name="LESF_SPLINES"> F  </i>
   <i type="int" name="LMAXMP2">    -1</i>
   <i name="SCISSOR">      0.00000000</i>
   <i type="int" name="NOMEGA">     0</i>
   <i type="int" name="NOMEGAR">     0</i>
   <i type="int" name="NBANDSGW">    -1</i>
   <i type="int" name="NBANDSO">    -1</i>
   <i type="int" name="NBANDSV">    -1</i>
   <i type="int" name="NELMGW">     1</i>
   <i type="int" name="NELMHF">     1</i>
   <i type="int" name="DIM">     3</i>
   <i type="int" name="IESPILON">     4</i>
   <i type="int" name="ANTIRES">     0</i>
   <i name="OMEGAMAX">    -30.00000000</i>
   <i name="OMEGAMIN">    -30.00000000</i>
   <i name="OMEGATL">   -200.00000000</i>
   <i type="int" name="OMEGAGRID">     0</i>
   <i name="CSHIFT">     -0.10000000</i>
   <i type="logical" name="LSELFENERGY"> F  </i>
   <i type="logical" name="LSPECTRAL"> F  </i>
   <i type="logical" name="LSPECTRALGW"> F  </i>
   <i type="logical" name="LSINGLES"> F  </i>
   <i type="logical" name="LFERMIGW"> F  </i>
   <i type="logical" name="ODDONLYGW"> F  </i>
   <i type="logical" name="EVENONLYGW"> F  </i>
   <i type="int" name="NKREDLFX">     1</i>
   <i type="int" name="NKREDLFY">     1</i>
   <i type="int" name="NKREDLFZ">     1</i>
   <i type="int" name="MAXMEM">  2800</i>
   <i type="int" name="TELESCOPE">     0</i>
   <i type="int" name="NTAUPAR">    -1</i>
   <i type="int" name="NOMEGAPAR">    -1</i>
   <i name="DAMP_NEWTON">      0.80000001</i>
   <i name="LAMBDA">      1.00000000</i>
  </separator>
  <separator name="External order field" >
   <i name="OFIELD_KAPPA">      0.00000000</i>
   <v name="OFIELD_K">      0.00000000      0.00000000      0.00000000</v>
   <i name="OFIELD_Q6_NEAR">      0.00000000</i>
   <i name="OFIELD_Q6_FAR">      0.00000000</i>
   <i name="OFIELD_A">      0.00000000</i>
  </separator>
  <separator name="optional k-points parameters" >
   <i type="int" name="KPOINTS_OPT_MODE">     1</i>
   <i type="logical" name="LKPOINTS_OPT"> F  </i>
  </separator>
  <separator name="solvation model" >
   <i type="logical" name="LSOL"> F  </i>
  </separator>
 </parameters>
 <atominfo>
  <atoms>      96 </atoms>
  <types>       2 </types>
  <array name="atoms" >
   <dimension dim="1">ion</dimension>
   <field type="string">element</field>
   <field type="int">atomtype</field>
   <set>
    <rc><c>C </c><c>   1</c></rc>
    <rc><c>C </c><c>   1</c></rc>
    <rc><c>C </c><c>   1</c></rc>
    <rc><c>C </c><c>   1</c></rc>
    <rc><c>C </c><c>   1</c></rc>
    <rc><c>C </c><c>   1</c></rc>
    <rc><c>C </c><c>   1</c></rc>
    <rc><c>C </c><c>   1</c></rc>
    <rc><c>C </c><c>   1</c></rc>
    <rc><c>C </c><c>   1</c></rc>
    <rc><c>C </c><c>   1</c></rc>
    <rc><c>C </c><c>   1</c></rc>
    <rc><c>C </c><c>   1</c></rc>
    <rc><c>C </c><c>   1</c></rc>
    <rc><c>C </c><c>   1</c></rc>
    <rc><c>C </c><c>   1</c></rc>
    <rc><c>C </c><c>   1</c></rc>
    <rc><c>C </c><c>   1</c></rc>
    <rc><c>C </c><c>   1</c></rc>
    <rc><c>C </c><c>   1</c></rc>
    <rc><c>C </c><c>   1</c></rc>
    <rc><c>C </c><c>   1</c></rc>
    <rc><c>C </c><c>   1</c></rc>
    <rc><c>C </c><c>   1</c></rc>
    <rc><c>C </c><c>   1</c></rc>
    <rc><c>C </c><c>   1</c></rc>
    <rc><c>C </c><c>   1</c></rc>
    <rc><c>C </c><c>   1</c></rc>
    <rc><c>C </c><c>   1</c></rc>
    <rc><c>C </c><c>   1</c></rc>
    <rc><c>C </c><c>   1</c></rc>
    <rc><c>C </c><c>   1</c></rc>
    <rc><c>C </c><c>   1</c></rc>
    <rc><c>C </c><c>   1</c></rc>
    <rc><c>C </c><c>   1</c></rc>
    <rc><c>C </c><c>   1</c></rc>
    <rc><c>C </c><c>   1</c></rc>
    <rc><c>C </c><c>   1</c></rc>
    <rc><c>C </c><c>   1</c></rc>
    <rc><c>C </c><c>   1</c></rc>
    <rc><c>C </c><c>   1</c></rc>
    <rc><c>C </c><c>   1</c></rc>
    <rc><c>C </c><c>   1</c></rc>
    <rc><c>C </c><c>   1</c></rc>
    <rc><c>C </c><c>   1</c></rc>
    <rc><c>C </c><c>   1</c></rc>
    <rc><c>C </c><c>   1</c></rc>
    <rc><c>C </c><c>   1</c></rc>
    <rc><c>Si</c><c>   2</c></rc>
    <rc><c>Si</c><c>   2</c></rc>
    <rc><c>Si</c><c>   2</c></rc>
    <rc><c>Si</c><c>   2</c></rc>
    <rc><c>Si</c><c>   2</c></rc>
    <rc><c>Si</c><c>   2</c></rc>
    <rc><c>Si</c><c>   2</c></rc>
    <rc><c>Si</c><c>   2</c></rc>
    <rc><c>Si</c><c>   2</c></rc>
    <rc><c>Si</c><c>   2</c></rc>
    <rc><c>Si</c><c>   2</c></rc>
    <rc><c>Si</c><c>   2</c></rc>
    <rc><c>Si</c><c>   2</c></rc>
    <rc><c>Si</c><c>   2</c></rc>
    <rc><c>Si</c><c>   2</c></rc>
    <rc><c>Si</c><c>   2</c></rc>
    <rc><c>Si</c><c>   2</c></rc>
    <rc><c>Si</c><c>   2</c></rc>
    <rc><c>Si</c><c>   2</c></rc>
    <rc><c>Si</c><c>   2</c></rc>
    <rc><c>Si</c><c>   2</c></rc>
    <rc><c>Si</c><c>   2</c></rc>
    <rc><c>Si</c><c>   2</c></rc>
    <rc><c>Si</c><c>   2</c></rc>
    <rc><c>Si</c><c>   2</c></rc>
    <rc><c>Si</c><c>   2</c></rc>
    <rc><c>Si</c><c>   2</c></rc>
    <rc><c>Si</c><c>   2</c></rc>
    <rc><c>Si</c><c>   2</c></rc>
    <rc><c>Si</c><c>   2</c></rc>
    <rc><c>Si</c><c>   2</c></rc>
    <rc><c>Si</c><c>   2</c></rc>
    <rc><c>Si</c><c>   2</c></rc>
    <rc><c>Si</c><c>   2</c></rc>
    <rc><c>Si</c><c>   2</c></rc>
    <rc><c>Si</c><c>   2</c></rc>
    <rc><c>Si</c><c>   2</c></rc>
    <rc><c>Si</c><c>   2</c></rc>
    <rc><c>Si</c><c>   2</c></rc>
    <rc><c>Si</c><c>   2</c></rc>
    <rc><c>Si</c><c>   2</c></rc>
    <rc><c>Si</c><c>   2</c></rc>
    <rc><c>Si</c><c>   2</c></rc>
    <rc><c>Si</c><c>   2</c></rc>
    <rc><c>Si</c><c>   2</c></rc>
    <rc><c>Si</c><c>   2</c></rc>
    <rc><c>Si</c><c>   2</c></rc>
    <rc><c>Si</c><c>   2</c></rc>
   </set>
  </array>
  <array name="atomtypes" >
   <dimension dim="1">type</dimension>
   <field type="int">atomspertype</field>
   <field type="string">element</field>
   <field>mass</field>
   <field>valence</field>
   <field type="string">pseudopotential</field>
   <set>
    <rc><c>  48</c><c>C </c><c>     12.01100000</c><c>      4.00000000</c><c> PAW_PBE C 08Apr2002                    </c></rc>
    <rc><c>  48</c><c>Si</c><c>     28.08500000</c><c>      4.00000000</c><c> PAW_PBE Si 05Jan2001                   </c></rc>
   </set>
  </array>
 </atominfo>
 <structure name="initialpos" >
  <crystal>
   <varray name="basis" >
    <v>       9.28426200       0.00000000       0.00000000 </v>
    <v>       0.00000000      10.72054200       0.00000000 </v>
    <v>       0.00000000       0.00000000      18.22724100 </v>
   </varray>
   <i name="volume">   1814.19959687 </i>
   <varray name="rec_basis" >
    <v>       0.10770915       0.00000000       0.00000000 </v>
    <v>       0.00000000       0.09327887       0.00000000 </v>
    <v>       0.00000000       0.00000000       0.05486294 </v>
   </varray>
  </crystal>
  <varray name="positions" >
   <v>       0.00000000       0.00000000       0.31213000 </v>
   <v>       0.16666700       0.25000000       0.31213000 </v>
   <v>       0.00000000       0.33333300       0.45137100 </v>
   <v>       0.16666700       0.08333300       0.45137100 </v>
   <v>       0.00000000       0.16666600       0.03482200 </v>
   <v>       0.16666700       0.41666600       0.03482200 </v>
   <v>       0.00000000       0.33333300       0.17351800 </v>
   <v>       0.16666700       0.08333300       0.17351800 </v>
   <v>       0.33333300       0.00000000       0.31213000 </v>
   <v>       0.50000000       0.25000000       0.31213000 </v>
   <v>       0.33333300       0.33333400       0.45137100 </v>
   <v>       0.50000000       0.08333300       0.45137100 </v>
   <v>       0.33333300       0.16666600       0.03482200 </v>
   <v>       0.50000000       0.41666600       0.03482200 </v>
   <v>       0.33333300       0.33333400       0.17351800 </v>
   <v>       0.50000000       0.08333300       0.17351800 </v>
   <v>       0.66666700       0.00000000       0.31213000 </v>
   <v>       0.83333300       0.25000000       0.31213000 </v>
   <v>       0.66666700       0.33333300       0.45137100 </v>
   <v>       0.83333300       0.08333300       0.45137100 </v>
   <v>       0.66666700       0.16666600       0.03482200 </v>
   <v>       0.83333300       0.41666600       0.03482200 </v>
   <v>       0.66666700       0.33333300       0.17351800 </v>
   <v>       0.83333300       0.08333300       0.17351800 </v>
   <v>       0.00000000       0.50000000       0.31213000 </v>
   <v>       0.16666700       0.75000000       0.31213000 </v>
   <v>       0.00000000       0.83333300       0.45137100 </v>
   <v>       0.16666700       0.58333300       0.45137100 </v>
   <v>       0.00000000       0.66666600       0.03482200 </v>
   <v>       0.16666700       0.91666600       0.03482200 </v>
   <v>       0.00000000       0.83333300       0.17351800 </v>
   <v>       0.16666700       0.58333300       0.17351800 </v>
   <v>       0.33333300       0.50000000       0.31213000 </v>
   <v>       0.50000000       0.75000000       0.31213000 </v>
   <v>       0.33333300       0.83333300       0.45137100 </v>
   <v>       0.50000000       0.58333300       0.45137100 </v>
   <v>       0.33333300       0.66666600       0.03482200 </v>
   <v>       0.50000000       0.91666600       0.03482200 </v>
   <v>       0.33333300       0.83333300       0.17351800 </v>
   <v>       0.50000000       0.58333300       0.17351800 </v>
   <v>       0.66666700       0.50000000       0.31213000 </v>
   <v>       0.83333300       0.75000000       0.31213000 </v>
   <v>       0.66666700       0.83333300       0.45137100 </v>
   <v>       0.83333300       0.58333300       0.45137100 </v>
   <v>       0.66666700       0.66666600       0.03482200 </v>
   <v>       0.83333300       0.91666600       0.03482200 </v>
   <v>       0.66666700       0.83333300       0.17351800 </v>
   <v>       0.83333300       0.58333300       0.17351800 </v>
   <v>       0.00000000       0.00000000       0.00000000 </v>
   <v>       0.16666700       0.25000000       0.00000000 </v>
   <v>       0.00000000       0.00000000       0.41654900 </v>
   <v>       0.16666700       0.25000000       0.41654900 </v>
   <v>       0.00000000       0.16666600       0.13894900 </v>
   <v>       0.16666700       0.41666600       0.13894900 </v>
   <v>       0.00000000       0.33333300       0.27764900 </v>
   <v>       0.16666700       0.08333300       0.27764900 </v>
   <v>       0.33333300       0.00000000       0.00000000 </v>
   <v>       0.50000000       0.25000000       0.00000000 </v>
   <v>       0.33333300       0.00000000       0.41654900 </v>
   <v>       0.50000000       0.25000000       0.41654900 </v>
   <v>       0.33333300       0.16666600       0.13894900 </v>
   <v>       0.50000000       0.41666600       0.13894900 </v>
   <v>       0.33333300       0.33333400       0.27764900 </v>
   <v>       0.50000000       0.08333300       0.27764900 </v>
   <v>       0.66666700       0.00000000       0.00000000 </v>
   <v>       0.83333300       0.25000000       0.00000000 </v>
   <v>       0.66666700       0.00000000       0.41654900 </v>
   <v>       0.83333300       0.25000000       0.41654900 </v>
   <v>       0.66666700       0.16666600       0.13894900 </v>
   <v>       0.83333300       0.41666600       0.13894900 </v>
   <v>       0.66666700       0.33333300       0.27764900 </v>
   <v>       0.83333300       0.08333300       0.27764900 </v>
   <v>       0.00000000       0.50000000       0.00000000 </v>
   <v>       0.16666700       0.75000000       0.00000000 </v>
   <v>       0.00000000       0.50000000       0.41654900 </v>
   <v>       0.16666700       0.75000000       0.41654900 </v>
   <v>       0.00000000       0.66666600       0.13894900 </v>
   <v>       0.16666700       0.91666600       0.13894900 </v>
   <v>       0.00000000       0.83333300       0.27764900 </v>
   <v>       0.16666700       0.58333300       0.27764900 </v>
   <v>       0.33333300       0.50000000       0.00000000 </v>
   <v>       0.50000000       0.75000000       0.00000000 </v>
   <v>       0.33333300       0.50000000       0.41654900 </v>
   <v>       0.50000000       0.75000000       0.41654900 </v>
   <v>       0.33333300       0.66666600       0.13894900 </v>
   <v>       0.50000000       0.91666600       0.13894900 </v>
   <v>       0.33333300       0.83333300       0.27764900 </v>
   <v>       0.50000000       0.58333300       0.27764900 </v>
   <v>       0.66666700       0.50000000       0.00000000 </v>
   <v>       0.83333300       0.75000000       0.00000000 </v>
   <v>       0.66666700       0.50000000       0.41654900 </v>
   <v>       0.83333300       0.75000000       0.41654900 </v>
   <v>       0.66666700       0.66666600       0.13894900 </v>
   <v>       0.83333300       0.91666600       0.13894900 </v>
   <v>       0.66666700       0.83333300       0.27764900 </v>
   <v>       0.83333300       0.58333300       0.27764900 </v>
  </varray>
  <varray name="selective"  type="logical" >
   <v type="logical" >  F  F  F </v>
   <v type="logical" >  F  F  F </v>
   <v type="logical" >  T  T  T </v>
   <v type="logical" >  T  T  T </v>
   <v type="logical" >  F  F  F </v>
   <v type="logical" >  F  F  F </v>
   <v type="logical" >  F  F  F </v>
   <v type="logical" >  F  F  F </v>
   <v type="logical" >  F  F  F </v>
   <v type="logical" >  F  F  F </v>
   <v type="logical" >  T  T  T </v>
   <v type="logical" >  T  T  T </v>
   <v type="logical" >  F  F  F </v>
   <v type="logical" >  F  F  F </v>
   <v type="logical" >  F  F  F </v>
   <v type="logical" >  F  F  F </v>
   <v type="logical" >  F  F  F </v>
   <v type="logical" >  F  F  F </v>
   <v type="logical" >  T  T  T </v>
   <v type="logical" >  T  T  T </v>
   <v type="logical" >  F  F  F </v>
   <v type="logical" >  F  F  F </v>
   <v type="logical" >  F  F  F </v>
   <v type="logical" >  F  F  F </v>
   <v type="logical" >  F  F  F </v>
   <v type="logical" >  F  F  F </v>
   <v type="logical" >  T  T  T </v>
   <v type="logical" >  T  T  T </v>
   <v type="logical" >  F  F  F </v>
   <v type="logical" >  F  F  F </v>
   <v type="logical" >  F  F  F </v>
   <v type="logical" >  F  F  F </v>
   <v type="logical" >  F  F  F </v>
   <v type="logical" >  F  F  F </v>
   <v type="logical" >  T  T  T </v>
   <v type="logical" >  T  T  T </v>
   <v type="logical" >  F  F  F </v>
   <v type="logical" >  F  F  F </v>
   <v type="logical" >  F  F  F </v>
   <v type="logical" >  F  F  F </v>
   <v type="logical" >  F  F  F </v>
   <v type="logical" >  F  F  F </v>
   <v type="logical" >  T  T  T </v>
   <v type="logical" >  T  T  T </v>
   <v type="logical" >  F  F  F </v>
   <v type="logical" >  F  F  F </v>
   <v type="logical" >  F  F  F </v>
   <v type="logical" >  F  F  F </v>
   <v type="logical" >  F  F  F </v>
   <v type="logical" >  F  F  F </v>
   <v type="logical" >  T  T  T </v>
   <v type="logical" >  T  T  T </v>
   <v type="logical" >  F  F  F </v>
   <v type="logical" >  F  F  F </v>
   <v type="logical" >  F  F  F </v>
   <v type="logical" >  F  F  F </v>
   <v type="logical" >  F  F  F </v>
   <v type="logical" >  F  F  F </v>
   <v type="logical" >  T  T  T </v>
   <v type="logical" >  T  T  T </v>
   <v type="logical" >  F  F  F </v>
   <v type="logical" >  F  F  F </v>
   <v type="logical" >  F  F  F </v>
   <v type="logical" >  F  F  F </v>
   <v type="logical" >  F  F  F </v>
   <v type="logical" >  F  F  F </v>
   <v type="logical" >  T  T  T </v>
   <v type="logical" >  T  T  T </v>
   <v type="logical" >  F  F  F </v>
   <v type="logical" >  F  F  F </v>
   <v type="logical" >  F  F  F </v>
   <v type="logical" >  F  F  F </v>
   <v type="logical" >  F  F  F </v>
   <v type="logical" >  F  F  F </v>
   <v type="logical" >  T  T  T </v>
   <v type="logical" >  T  T  T </v>
   <v type="logical" >  F  F  F </v>
   <v type="logical" >  F  F  F </v>
   <v type="logical" >  F  F  F </v>
   <v type="logical" >  F  F  F </v>
   <v type="logical" >  F  F  F </v>
   <v type="logical" >  F  F  F </v>
   <v type="logical" >  T  T  T </v>
   <v type="logical" >  T  T  T </v>
   <v type="logical" >  F  F  F </v>
   <v type="logical" >  F  F  F </v>
   <v type="logical" >  F  F  F </v>
   <v type="logical" >  F  F  F </v>
   <v type="logical" >  F  F  F </v>
   <v type="logical" >  F  F  F </v>
   <v type="logical" >  T  T  T </v>
   <v type="logical" >  T  T  T </v>
   <v type="logical" >  F  F  F </v>
   <v type="logical" >  F  F  F </v>
   <v type="logical" >  F  F  F </v>
   <v type="logical" >  F  F  F </v>
  </varray>
  <nose>
   <v>      -3.00000000       0.00000000       0.00010000       0.00010000 </v>
  </nose>
 </structure>
 <calculation>
  <scstep>
   <time name="dav">   45.09    6.47</time>
   <time name="total">   54.31    7.88</time>
   <energy>
    <i name="alphaZ">    292.45958487 </i>
    <i name="ewald">  29164.43799919 </i>
    <i name="hartreedc"> -40869.31343296 </i>
    <i name="XCdc">    227.64285616 </i>
    <i name="pawpsdc">   3398.83426340 </i>
    <i name="pawaedc">  -2609.57693563 </i>
    <i name="eentropy">     -0.10119248 </i>
    <i name="bandstr">    478.39290743 </i>
    <i name="atom">  12010.34264613 </i>
    <i name="e_fr_energy">   2093.11869612 </i>
    <i name="e_wo_entrp">   2093.21988859 </i>
    <i name="e_0_energy">   2093.16929235 </i>
   </energy>
  </scstep>
  <scstep>
   <time name="dav">   54.12    7.83</time>
   <time name="total">   54.13    7.83</time>
   <energy>
    <i name="e_fr_energy">   -462.39087534 </i>
    <i name="e_wo_entrp">   -462.39087534 </i>
    <i name="e_0_energy">   -462.39087534 </i>
   </energy>
  </scstep>
  <scstep>
   <time name="dav">   54.66    7.83</time>
   <time name="total">   54.67    7.83</time>
   <energy>
    <i name="e_fr_energy">   -765.06016039 </i>
    <i name="e_wo_entrp">   -765.06016039 </i>
    <i name="e_0_energy">   -765.06016039 </i>
   </energy>
  </scstep>
  <scstep>
   <time name="dav">   56.34    8.06</time>
   <time name="total">   56.35    8.06</time>
   <energy>
    <i name="e_fr_energy">   -781.83960783 </i>
    <i name="e_wo_entrp">   -781.83960783 </i>
    <i name="e_0_energy">   -781.83960783 </i>
   </energy>
  </scstep>
  <scstep>
   <time name="dav">   58.50    8.38</time>
   <time name="total">   62.25    9.15</time>
   <energy>
    <i name="e_fr_energy">   -782.38234497 </i>
    <i name="e_wo_entrp">   -782.38234497 </i>
    <i name="e_0_energy">   -782.38234497 </i>
   </energy>
  </scstep>
  <scstep>
   <time name="diag">    3.48    0.79</time>
   <time name="diis">    6.83    3.00</time>
   <time name="orth">    0.12    0.06</time>
   <time name="total">   22.16    5.98</time>
   <energy>
    <i name="e_fr_energy">   -698.57363315 </i>
    <i name="e_wo_entrp">   -698.49429417 </i>
    <i name="e_0_energy">   -698.53396366 </i>
   </energy>
  </scstep>
  <scstep>
   <time name="diag">    3.46    0.78</time>
   <time name="diis">    7.06    3.12</time>
   <time name="orth">    0.12    0.06</time>
   <time name="total">   22.62    6.12</time>
   <energy>
    <i name="e_fr_energy">   -678.92251993 </i>
    <i name="e_wo_entrp">   -678.91989053 </i>
    <i name="e_0_energy">   -678.92120523 </i>
   </energy>
  </scstep>
  <scstep>
   <time name="diag">    3.39    0.78</time>
   <time name="diis">    7.57    3.38</time>
   <time name="orth">    0.12    0.06</time>
   <time name="total">   23.02    6.38</time>
   <energy>
    <i name="e_fr_energy">   -678.35930419 </i>
    <i name="e_wo_entrp">   -678.23322173 </i>
    <i name="e_0_energy">   -678.29626296 </i>
   </energy>
  </scstep>
  <scstep>
   <time name="diag">    3.47    0.78</time>
   <time name="diis">    6.93    3.05</time>
   <time name="orth">    0.12    0.06</time>
   <time name="total">   22.44    6.05</time>
   <energy>
    <i name="e_fr_energy">   -677.60960383 </i>
    <i name="e_wo_entrp">   -677.60055169 </i>
    <i name="e_0_energy">   -677.60507776 </i>
   </energy>
  </scstep>
  <scstep>
   <time name="diag">    3.49    0.79</time>
   <time name="diis">    7.02    3.10</time>
   <time name="orth">    0.12    0.06</time>
   <time name="total">   22.60    6.12</time>
   <energy>
    <i name="e_fr_energy">   -673.21067599 </i>
    <i name="e_wo_entrp">   -672.90004294 </i>
    <i name="e_0_energy">   -673.05535947 </i>
   </energy>
  </scstep>
  <scstep>
   <time name="diag">    3.46    0.78</time>
   <time name="diis">    7.79    3.49</time>
   <time name="orth">    0.12    0.06</time>
   <time name="total">   23.35    6.50</time>
   <energy>
    <i name="e_fr_energy">   -672.96173617 </i>
    <i name="e_wo_entrp">   -672.62274907 </i>
    <i name="e_0_energy">   -672.79224262 </i>
   </energy>
  </scstep>
  <scstep>
   <time name="diag">    3.45    0.78</time>
   <time name="diis">    7.22    3.20</time>
   <time name="orth">    0.12    0.06</time>
   <time name="total">   22.79    6.22</time>
   <energy>
    <i name="e_fr_energy">   -672.88225688 </i>
    <i name="e_wo_entrp">   -672.51149443 </i>
    <i name="e_0_energy">   -672.69687565 </i>
   </energy>
  </scstep>
  <scstep>
   <time name="diag">    3.42    0.78</time>
   <time name="diis">    6.99    3.08</time>
   <time name="orth">    0.12    0.06</time>
   <time name="total">   22.68    6.12</time>
   <energy>
    <i name="e_fr_energy">   -672.69567427 </i>
    <i name="e_wo_entrp">   -672.33324889 </i>
    <i name="e_0_energy">   -672.51446158 </i>
   </energy>
  </scstep>
  <scstep>
   <time name="diag">    3.44    0.78</time>
   <time name="diis">    7.23    3.20</time>
   <time name="orth">    0.12    0.06</time>
   <time name="total">   22.80    6.22</time>
   <energy>
    <i name="e_fr_energy">   -672.56939808 </i>
    <i name="e_wo_entrp">   -672.17709159 </i>
    <i name="e_0_energy">   -672.37324483 </i>
   </energy>
  </scstep>
  <scstep>
   <time name="diag">    3.47    0.78</time>
   <time name="diis">    7.64    3.41</time>
   <time name="orth">    0.12    0.06</time>
   <time name="total">   23.22    6.42</time>
   <energy>
    <i name="e_fr_energy">   -672.53467639 </i>
    <i name="e_wo_entrp">   -672.14011828 </i>
    <i name="e_0_energy">   -672.33739733 </i>
   </energy>
  </scstep>
  <scstep>
   <time name="diag">    3.45    0.78</time>
   <time name="diis">    7.34    3.24</time>
   <time name="orth">    0.12    0.06</time>
   <time name="total">   22.92    6.25</time>
   <energy>
    <i name="e_fr_energy">   -672.57791582 </i>
    <i name="e_wo_entrp">   -672.18152330 </i>
    <i name="e_0_energy">   -672.37971956 </i>
   </energy>
  </scstep>
  <scstep>
   <time name="diag">    3.48    0.78</time>
   <time name="diis">    6.66    2.91</time>
   <time name="orth">    0.12    0.06</time>
   <time name="total">   22.47    5.95</time>
   <energy>
    <i name="e_fr_energy">   -672.54620847 </i>
    <i name="e_wo_entrp">   -672.14948166 </i>
    <i name="e_0_energy">   -672.34784506 </i>
   </energy>
  </scstep>
  <scstep>
   <time name="diag">    3.47    0.78</time>
   <time name="diis">    7.34    3.24</time>
   <time name="orth">    0.12    0.06</time>
   <time name="total">   23.09    6.28</time>
   <energy>
    <i name="e_fr_energy">   -672.54791179 </i>
    <i name="e_wo_entrp">   -672.15267435 </i>
    <i name="e_0_energy">   -672.35029307 </i>
   </energy>
  </scstep>
  <scstep>
   <time name="diag">    3.51    0.78</time>
   <time name="diis">    7.01    3.09</time>
   <time name="orth">    0.12    0.06</time>
   <time name="total">   22.86    6.14</time>
   <energy>
    <i name="e_fr_energy">   -672.55307036 </i>
    <i name="e_wo_entrp">   -672.15673195 </i>
    <i name="e_0_energy">   -672.35490116 </i>
   </energy>
  </scstep>
  <scstep>
   <time name="diag">    3.51    0.78</time>
   <time name="diis">    7.49    3.34</time>
   <time name="orth">    0.12    0.06</time>
   <time name="total">   23.26    6.37</time>
   <energy>
    <i name="e_fr_energy">   -672.55411780 </i>
    <i name="e_wo_entrp">   -672.15844789 </i>
    <i name="e_0_energy">   -672.35628285 </i>
   </energy>
  </scstep>
  <scstep>
   <time name="diag">    3.45    0.78</time>
   <time name="diis">    7.20    3.19</time>
   <time name="orth">    0.12    0.06</time>
   <time name="total">   23.08    6.25</time>
   <energy>
    <i name="e_fr_energy">   -672.55475570 </i>
    <i name="e_wo_entrp">   -672.15944585 </i>
    <i name="e_0_energy">   -672.35710077 </i>
   </energy>
  </scstep>
  <scstep>
   <time name="diag">    3.10    0.78</time>
   <time name="diis">    7.33    3.25</time>
   <time name="orth">    0.12    0.06</time>
   <time name="total">   23.21    6.35</time>
   <energy>
    <i name="e_fr_energy">   -672.55540966 </i>
    <i name="e_wo_entrp">   -672.15997351 </i>
    <i name="e_0_energy">   -672.35769159 </i>
   </energy>
  </scstep>
  <scstep>
   <time name="diag">    3.46    0.78</time>
   <time name="diis">    6.96    3.08</time>
   <time name="orth">    0.12    0.06</time>
   <time name="total">   22.74    6.11</time>
   <energy>
    <i name="e_fr_energy">   -672.55550196 </i>
    <i name="e_wo_entrp">   -672.16017903 </i>
    <i name="e_0_energy">   -672.35784049 </i>
   </energy>
  </scstep>
  <scstep>
   <time name="diag">    3.48    0.79</time>
   <time name="diis">    6.95    3.07</time>
   <time name="orth">    0.12    0.06</time>
   <time name="total">   22.87    6.13</time>
   <energy>
    <i name="e_fr_energy">   -672.55557122 </i>
    <i name="e_wo_entrp">   -672.16033175 </i>
    <i name="e_0_energy">   -672.35795149 </i>
   </energy>
  </scstep>
  <scstep>
   <time name="diag">    3.44    0.78</time>
   <time name="diis">    5.54    2.35</time>
   <time name="orth">    0.12    0.06</time>
   <time name="total">   21.48    5.42</time>
   <energy>
    <i name="e_fr_energy">   -672.55559674 </i>
    <i name="e_wo_entrp">   -672.16036307 </i>
    <i name="e_0_energy">   -672.35797991 </i>
   </energy>
  </scstep>
  <scstep>
   <time name="diag">    3.32    0.78</time>
   <time name="diis">    5.11    2.14</time>
   <time name="orth">    0.12    0.06</time>
   <time name="total">   21.30    5.26</time>
   <energy>
    <i name="e_fr_energy">   -672.55560669 </i>
    <i name="e_wo_entrp">   -672.16037875 </i>
    <i name="e_0_energy">   -672.35799272 </i>
   </energy>
  </scstep>
  <scstep>
   <time name="diag">    3.14    0.78</time>
   <time name="diis">    4.53    1.85</time>
   <time name="orth">    0.12    0.06</time>
   <time name="total">   17.30    4.14</time>
   <energy>
    <i name="alphaZ">    292.45958487 </i>
    <i name="ewald">  29164.43799919 </i>
    <i name="hartreedc"> -41705.68778935 </i>
    <i name="XCdc">    275.42795026 </i>
    <i name="pawpsdc">   4655.65177446 </i>
    <i name="pawaedc">  -3875.56163940 </i>
    <i name="eentropy">     -0.39522375 </i>
    <i name="bandstr">  -1489.23090972 </i>
    <i name="atom">  12010.34264613 </i>
    <i name="e_fr_energy">   -672.55560732 </i>
    <i name="e_wo_entrp">   -672.16038357 </i>
    <i name="e_0_energy">   -672.35799544 </i>
   </energy>
  </scstep>
  <structure>
   <crystal>
    <varray name="basis" >
     <v>       9.28426200       0.00000000       0.00000000 </v>
     <v>       0.00000000      10.72054200       0.00000000 </v>
     <v>       0.00000000       0.00000000      18.22724100 </v>
    </varray>
    <i name="volume">   1814.19959687 </i>
    <varray name="rec_basis" >
     <v>       0.10770915       0.00000000       0.00000000 </v>
     <v>       0.00000000       0.09327887       0.00000000 </v>
     <v>       0.00000000       0.00000000       0.05486294 </v>
    </varray>
   </crystal>
   <varray name="positions" >
    <v>       0.00000000       0.00000000       0.31213000 </v>
    <v>       0.16666700       0.25000000       0.31213000 </v>
    <v>       0.00000000       0.33333300       0.45137100 </v>
    <v>       0.16666700       0.08333300       0.45137100 </v>
    <v>       0.00000000       0.16666600       0.03482200 </v>
    <v>       0.16666700       0.41666600       0.03482200 </v>
    <v>       0.00000000       0.33333300       0.17351800 </v>
    <v>       0.16666700       0.08333300       0.17351800 </v>
    <v>       0.33333300       0.00000000       0.31213000 </v>
    <v>       0.50000000       0.25000000       0.31213000 </v>
    <v>       0.33333300       0.33333400       0.45137100 </v>
    <v>       0.50000000       0.08333300       0.45137100 </v>
    <v>       0.33333300       0.16666600       0.03482200 </v>
    <v>       0.50000000       0.41666600       0.03482200 </v>
    <v>       0.33333300       0.33333400       0.17351800 </v>
    <v>       0.50000000       0.08333300       0.17351800 </v>
    <v>       0.66666700       0.00000000       0.31213000 </v>
    <v>       0.83333300       0.25000000       0.31213000 </v>
    <v>       0.66666700       0.33333300       0.45137100 </v>
    <v>       0.83333300       0.08333300       0.45137100 </v>
    <v>       0.66666700       0.16666600       0.03482200 </v>
    <v>       0.83333300       0.41666600       0.03482200 </v>
    <v>       0.66666700       0.33333300       0.17351800 </v>
    <v>       0.83333300       0.08333300       0.17351800 </v>
    <v>       0.00000000       0.50000000       0.31213000 </v>
    <v>       0.16666700       0.75000000       0.31213000 </v>
    <v>       0.00000000       0.83333300       0.45137100 </v>
    <v>       0.16666700       0.58333300       0.45137100 </v>
    <v>       0.00000000       0.66666600       0.03482200 </v>
    <v>       0.16666700       0.91666600       0.03482200 </v>
    <v>       0.00000000       0.83333300       0.17351800 </v>
    <v>       0.16666700       0.58333300       0.17351800 </v>
    <v>       0.33333300       0.50000000       0.31213000 </v>
    <v>       0.50000000       0.75000000       0.31213000 </v>
    <v>       0.33333300       0.83333300       0.45137100 </v>
    <v>       0.50000000       0.58333300       0.45137100 </v>
    <v>       0.33333300       0.66666600       0.03482200 </v>
    <v>       0.50000000       0.91666600       0.03482200 </v>
    <v>       0.33333300       0.83333300       0.17351800 </v>
    <v>       0.50000000       0.58333300       0.17351800 </v>
    <v>       0.66666700       0.50000000       0.31213000 </v>
    <v>       0.83333300       0.75000000       0.31213000 </v>
    <v>       0.66666700       0.83333300       0.45137100 </v>
    <v>       0.83333300       0.58333300       0.45137100 </v>
    <v>       0.66666700       0.66666600       0.03482200 </v>
    <v>       0.83333300       0.91666600       0.03482200 </v>
    <v>       0.66666700       0.83333300       0.17351800 </v>
    <v>       0.83333300       0.58333300       0.17351800 </v>
    <v>       0.00000000       0.00000000       0.00000000 </v>
    <v>       0.16666700       0.25000000       0.00000000 </v>
    <v>       0.00000000       0.00000000       0.41654900 </v>
    <v>       0.16666700       0.25000000       0.41654900 </v>
    <v>       0.00000000       0.16666600       0.13894900 </v>
    <v>       0.16666700       0.41666600       0.13894900 </v>
    <v>       0.00000000       0.33333300       0.27764900 </v>
    <v>       0.16666700       0.08333300       0.27764900 </v>
    <v>       0.33333300       0.00000000       0.00000000 </v>
    <v>       0.50000000       0.25000000       0.00000000 </v>
    <v>       0.33333300       0.00000000       0.41654900 </v>
    <v>       0.50000000       0.25000000       0.41654900 </v>
    <v>       0.33333300       0.16666600       0.13894900 </v>
    <v>       0.50000000       0.41666600       0.13894900 </v>
    <v>       0.33333300       0.33333400       0.27764900 </v>
    <v>       0.50000000       0.08333300       0.27764900 </v>
    <v>       0.66666700       0.00000000       0.00000000 </v>
    <v>       0.83333300       0.25000000       0.00000000 </v>
    <v>       0.66666700       0.00000000       0.41654900 </v>
    <v>       0.83333300       0.25000000       0.41654900 </v>
    <v>       0.66666700       0.16666600       0.13894900 </v>
    <v>       0.83333300       0.41666600       0.13894900 </v>
    <v>       0.66666700       0.33333300       0.27764900 </v>
    <v>       0.83333300       0.08333300       0.27764900 </v>
    <v>       0.00000000       0.50000000       0.00000000 </v>
    <v>       0.16666700       0.75000000       0.00000000 </v>
    <v>       0.00000000       0.50000000       0.41654900 </v>
    <v>       0.16666700       0.75000000       0.41654900 </v>
    <v>       0.00000000       0.66666600       0.13894900 </v>
    <v>       0.16666700       0.91666600       0.13894900 </v>
    <v>       0.00000000       0.83333300       0.27764900 </v>
    <v>       0.16666700       0.58333300       0.27764900 </v>
    <v>       0.33333300       0.50000000       0.00000000 </v>
    <v>       0.50000000       0.75000000       0.00000000 </v>
    <v>       0.33333300       0.50000000       0.41654900 </v>
    <v>       0.50000000       0.75000000       0.41654900 </v>
    <v>       0.33333300       0.66666600       0.13894900 </v>
    <v>       0.50000000       0.91666600       0.13894900 </v>
    <v>       0.33333300       0.83333300       0.27764900 </v>
    <v>       0.50000000       0.58333300       0.27764900 </v>
    <v>       0.66666700       0.50000000       0.00000000 </v>
    <v>       0.83333300       0.75000000       0.00000000 </v>
    <v>       0.66666700       0.50000000       0.41654900 </v>
    <v>       0.83333300       0.75000000       0.41654900 </v>
    <v>       0.66666700       0.66666600       0.13894900 </v>
    <v>       0.83333300       0.91666600       0.13894900 </v>
    <v>       0.66666700       0.83333300       0.27764900 </v>
    <v>       0.83333300       0.58333300       0.27764900 </v>
   </varray>
  </structure>
  <varray name="forces" >
   <v>       0.00000000      -0.00123761      -0.93104063 </v>
   <v>       0.00000000      -0.00123761      -0.93104063 </v>
   <v>      -0.00000000      -0.00630759      -2.32190858 </v>
   <v>       0.00000000      -0.00630759      -2.32190858 </v>
   <v>       0.00000000      -0.00197462      -1.05647454 </v>
   <v>      -0.00000000      -0.00197462      -1.05647454 </v>
   <v>      -0.00000000      -0.00120348      -0.52895544 </v>
   <v>      -0.00000000      -0.00120348      -0.52895544 </v>
   <v>      -0.00000000      -0.00123761      -0.93104063 </v>
   <v>      -0.00000000      -0.00123761      -0.93104063 </v>
   <v>      -0.00000000      -0.00630759      -2.32190858 </v>
   <v>      -0.00000000      -0.00630759      -2.32190858 </v>
   <v>       0.00000000      -0.00197462      -1.05647454 </v>
   <v>      -0.00000000      -0.00197462      -1.05647454 </v>
   <v>       0.00000000      -0.00120348      -0.52895544 </v>
   <v>       0.00000000      -0.00120348      -0.52895544 </v>
   <v>       0.00000000      -0.00123761      -0.93104063 </v>
   <v>       0.00000000      -0.00123761      -0.93104063 </v>
   <v>       0.00000000      -0.00630759      -2.32190858 </v>
   <v>      -0.00000000      -0.00630759      -2.32190858 </v>
   <v>       0.00000000      -0.00197462      -1.05647454 </v>
   <v>      -0.00000000      -0.00197462      -1.05647454 </v>
   <v>      -0.00000000      -0.00120348      -0.52895544 </v>
   <v>      -0.00000000      -0.00120348      -0.52895544 </v>
   <v>      -0.00000000      -0.00123761      -0.93104063 </v>
   <v>      -0.00000000      -0.00123761      -0.93104063 </v>
   <v>       0.00000000      -0.00630759      -2.32190858 </v>
   <v>      -0.00000000      -0.00630759      -2.32190858 </v>
   <v>      -0.00000000      -0.00197462      -1.05647454 </v>
   <v>       0.00000000      -0.00197462      -1.05647454 </v>
   <v>       0.00000000      -0.00120348      -0.52895544 </v>
   <v>      -0.00000000      -0.00120348      -0.52895544 </v>
   <v>       0.00000000      -0.00123761      -0.93104063 </v>
   <v>      -0.00000000      -0.00123761      -0.93104063 </v>
   <v>       0.00000000      -0.00630759      -2.32190858 </v>
   <v>      -0.00000000      -0.00630759      -2.32190858 </v>
   <v>      -0.00000000      -0.00197462      -1.05647454 </v>
   <v>      -0.00000000      -0.00197462      -1.05647454 </v>
   <v>       0.00000000      -0.00120348      -0.52895544 </v>
   <v>       0.00000000      -0.00120348      -0.52895544 </v>
   <v>      -0.00000000      -0.00123761      -0.93104063 </v>
   <v>       0.00000000      -0.00123761      -0.93104063 </v>
   <v>       0.00000000      -0.00630759      -2.32190858 </v>
   <v>      -0.00000000      -0.00630759      -2.32190858 </v>
   <v>      -0.00000000      -0.00197462      -1.05647454 </v>
   <v>      -0.00000000      -0.00197462      -1.05647454 </v>
   <v>      -0.00000000      -0.00120348      -0.52895544 </v>
   <v>       0.00000000      -0.00120348      -0.52895544 </v>
   <v>       0.00000000      -0.00016135       0.80286962 </v>
   <v>      -0.00000000      -0.00016135       0.80286962 </v>
   <v>      -0.00000000       0.00873339       2.76020233 </v>
   <v>       0.00000000       0.00873339       2.76020233 </v>
   <v>      -0.00000000       0.00148329       0.49884124 </v>
   <v>       0.00000000       0.00148329       0.49884124 </v>
   <v>      -0.00000000       0.00066797       0.77646601 </v>
   <v>      -0.00000000       0.00066797       0.77646601 </v>
   <v>      -0.00000000      -0.00016135       0.80286962 </v>
   <v>       0.00000000      -0.00016135       0.80286962 </v>
   <v>       0.00000000       0.00873339       2.76020233 </v>
   <v>       0.00000000       0.00873339       2.76020233 </v>
   <v>       0.00000000       0.00148329       0.49884124 </v>
   <v>      -0.00000000       0.00148329       0.49884124 </v>
   <v>       0.00000000       0.00066797       0.77646601 </v>
   <v>       0.00000000       0.00066797       0.77646601 </v>
   <v>       0.00000000      -0.00016135       0.80286962 </v>
   <v>       0.00000000      -0.00016135       0.80286962 </v>
   <v>       0.00000000       0.00873339       2.76020233 </v>
   <v>      -0.00000000       0.00873339       2.76020233 </v>
   <v>      -0.00000000       0.00148329       0.49884124 </v>
   <v>      -0.00000000       0.00148329       0.49884124 </v>
   <v>       0.00000000       0.00066797       0.77646601 </v>
   <v>      -0.00000000       0.00066797       0.77646601 </v>
   <v>       0.00000000      -0.00016135       0.80286962 </v>
   <v>       0.00000000      -0.00016135       0.80286962 </v>
   <v>       0.00000000       0.00873339       2.76020233 </v>
   <v>       0.00000000       0.00873339       2.76020233 </v>
   <v>      -0.00000000       0.00148329       0.49884124 </v>
   <v>       0.00000000       0.00148329       0.49884124 </v>
   <v>       0.00000000       0.00066797       0.77646601 </v>
   <v>      -0.00000000       0.00066797       0.77646601 </v>
   <v>       0.00000000      -0.00016135       0.80286962 </v>
   <v>       0.00000000      -0.00016135       0.80286962 </v>
   <v>       0.00000000       0.00873339       2.76020233 </v>
   <v>       0.00000000       0.00873339       2.76020233 </v>
   <v>       0.00000000       0.00148329       0.49884124 </v>
   <v>      -0.00000000       0.00148329       0.49884124 </v>
   <v>      -0.00000000       0.00066797       0.77646601 </v>
   <v>       0.00000000       0.00066797       0.77646601 </v>
   <v>      -0.00000000      -0.00016135       0.80286962 </v>
   <v>       0.00000000      -0.00016135       0.80286962 </v>
   <v>      -0.00000000       0.00873339       2.76020233 </v>
   <v>       0.00000000       0.00873339       2.76020233 </v>
   <v>       0.00000000       0.00148329       0.49884124 </v>
   <v>      -0.00000000       0.00148329       0.49884124 </v>
   <v>      -0.00000000       0.00066797       0.77646601 </v>
   <v>       0.00000000       0.00066797       0.77646601 </v>
  </varray>
  <varray name="stress" >
   <v>      -2.15704614       0.00000000       0.00000000 </v>
   <v>       0.00000000      -2.01732031       0.01095288 </v>
   <v>       0.00000000       0.01095289      -6.96553013 </v>
  </varray>
  <energy>
   <i name="e_fr_energy">   -672.55560732 </i>
   <i name="e_wo_entrp">   -672.16038357 </i>
   <i name="e_0_energy">   -672.35799544 </i>
  </energy>
  <time name="totalsc">  829.11  186.74</time>
 </calculation>
 <calculation>
  <scstep>
   <time name="dav">   45.68    6.57</time>
   <time name="total">   58.52    8.74</time>
   <energy>
    <i name="alphaZ">    292.45958487 </i>
    <i name="ewald">  29163.11843320 </i>
    <i name="hartreedc"> -41688.48893844 </i>
    <i name="XCdc">    276.35425039 </i>
    <i name="pawpsdc">   4655.64835006 </i>
    <i name="pawaedc">  -3875.55821089 </i>
    <i name="eentropy">     -0.40599257 </i>
    <i name="bandstr">  -1509.84847492 </i>
    <i name="atom">  12010.34264613 </i>
    <i name="e_fr_energy">   -676.37835217 </i>
    <i name="e_wo_entrp">   -675.97235960 </i>
    <i name="e_0_energy">   -676.17535589 </i>
   </energy>
  </scstep>
  <scstep>
   <time name="diag">    3.48    0.78</time>
   <time name="diis">    6.93    3.06</time>
   <time name="orth">    0.12    0.06</time>
   <time name="total">   22.50    6.08</time>
   <energy>
    <i name="e_fr_energy">   -676.63720450 </i>
    <i name="e_wo_entrp">   -676.25122128 </i>
    <i name="e_0_energy">   -676.44421289 </i>
   </energy>
  </scstep>
  <scstep>
   <time name="diag">    3.46    0.78</time>
   <time name="diis">    7.47    3.33</time>
   <time name="orth">    0.12    0.06</time>
   <time name="total">   22.95    6.32</time>
   <energy>
    <i name="e_fr_energy">   -676.64062069 </i>
    <i name="e_wo_entrp">   -676.23586147 </i>
    <i name="e_0_energy">   -676.43824108 </i>
   </energy>
  </scstep>
  <scstep>
   <time name="diag">    3.45    0.78</time>
   <time name="diis">    6.84    3.01</time>
   <time name="orth">    0.12    0.06</time>
   <time name="total">   22.36    6.02</time>
   <energy>
    <i name="e_fr_energy">   -676.41871627 </i>
    <i name="e_wo_entrp">   -676.03318275 </i>
    <i name="e_0_energy">   -676.22594951 </i>
   </energy>
  </scstep>
  <scstep>
   <time name="diag">    3.19    0.79</time>
   <time name="diis">    7.09    3.16</time>
   <time name="orth">    0.12    0.06</time>
   <time name="total">   22.84    6.25</time>
   <energy>
    <i name="e_fr_energy">   -676.39104474 </i>
    <i name="e_wo_entrp">   -676.00164157 </i>
    <i name="e_0_energy">   -676.19634315 </i>
   </energy>
  </scstep>
  <scstep>
   <time name="diag">    3.39    0.78</time>
   <time name="diis">    7.09    3.13</time>
   <time name="orth">    0.12    0.06</time>
   <time name="total">   22.72    6.17</time>
   <energy>
    <i name="e_fr_energy">   -676.37019948 </i>
    <i name="e_wo_entrp">   -675.97365516 </i>
    <i name="e_0_energy">   -676.17192732 </i>
   </energy>
  </scstep>
  <scstep>
   <time name="diag">    3.47    0.78</time>
   <time name="diis">    7.36    3.27</time>
   <time name="orth">    0.12    0.06</time>
   <time name="total">   23.06    6.30</time>
   <energy>
    <i name="e_fr_energy">   -676.36870836 </i>
    <i name="e_wo_entrp">   -675.97160837 </i>
    <i name="e_0_energy">   -676.17015836 </i>
   </energy>
  </scstep>
  <scstep>
   <time name="diag">    3.47    0.78</time>
   <time name="diis">    7.48    3.31</time>
   <time name="orth">    0.12    0.06</time>
   <time name="total">   23.11    6.33</time>
   <energy>
    <i name="e_fr_energy">   -676.36721047 </i>
    <i name="e_wo_entrp">   -675.97036524 </i>
    <i name="e_0_energy">   -676.16878785 </i>
   </energy>
  </scstep>
  <scstep>
   <time name="diag">    3.38    0.78</time>
   <time name="diis">    6.79    2.98</time>
   <time name="orth">    0.12    0.06</time>
   <time name="total">   22.35    6.00</time>
   <energy>
    <i name="e_fr_energy">   -676.36715533 </i>
    <i name="e_wo_entrp">   -675.97064214 </i>
    <i name="e_0_energy">   -676.16889874 </i>
   </energy>
  </scstep>
  <scstep>
   <time name="diag">    3.46    0.78</time>
   <time name="diis">    7.49    3.33</time>
   <time name="orth">    0.12    0.06</time>
   <time name="total">   23.34    6.39</time>
   <energy>
    <i name="e_fr_energy">   -676.36936120 </i>
    <i name="e_wo_entrp">   -675.97396122 </i>
    <i name="e_0_energy">   -676.17166121 </i>
   </energy>
  </scstep>
  <scstep>
   <time name="diag">    3.43    0.78</time>
   <time name="diis">    6.96    3.08</time>
   <time name="orth">    0.12    0.06</time>
   <time name="total">   22.81    6.14</time>
   <energy>
    <i name="e_fr_energy">   -676.36950546 </i>
    <i name="e_wo_entrp">   -675.97344526 </i>
    <i name="e_0_energy">   -676.17147536 </i>
   </energy>
  </scstep>
  <scstep>
   <time name="diag">    3.51    0.78</time>
   <time name="diis">    7.87    3.55</time>
   <time name="orth">    0.12    0.06</time>
   <time name="total">   23.71    6.60</time>
   <energy>
    <i name="e_fr_energy">   -676.37137104 </i>
    <i name="e_wo_entrp">   -675.97468946 </i>
    <i name="e_0_energy">   -676.17303025 </i>
   </energy>
  </scstep>
  <scstep>
   <time name="diag">    3.34    0.78</time>
   <time name="diis">    6.68    2.92</time>
   <time name="orth">    0.12    0.06</time>
   <time name="total">   22.42    5.97</time>
   <energy>
    <i name="e_fr_energy">   -676.37131583 </i>
    <i name="e_wo_entrp">   -675.97502153 </i>
    <i name="e_0_energy">   -676.17316868 </i>
   </energy>
  </scstep>
  <scstep>
   <time name="diag">    3.44    0.78</time>
   <time name="diis">    7.75    3.46</time>
   <time name="orth">    0.12    0.06</time>
   <time name="total">   23.65    6.53</time>
   <energy>
    <i name="e_fr_energy">   -676.37144805 </i>
    <i name="e_wo_entrp">   -675.97557841 </i>
    <i name="e_0_energy">   -676.17351323 </i>
   </energy>
  </scstep>
  <scstep>
   <time name="diag">    3.36    0.78</time>
   <time name="diis">    6.82    3.00</time>
   <time name="orth">    0.12    0.06</time>
   <time name="total">   22.66    6.06</time>
   <energy>
    <i name="e_fr_energy">   -676.37158422 </i>
    <i name="e_wo_entrp">   -675.97552284 </i>
    <i name="e_0_energy">   -676.17355353 </i>
   </energy>
  </scstep>
  <scstep>
   <time name="diag">    3.47    0.78</time>
   <time name="diis">    6.39    2.78</time>
   <time name="orth">    0.12    0.06</time>
   <time name="total">   22.24    5.83</time>
   <energy>
    <i name="e_fr_energy">   -676.37158064 </i>
    <i name="e_wo_entrp">   -675.97560579 </i>
    <i name="e_0_energy">   -676.17359322 </i>
   </energy>
  </scstep>
  <scstep>
   <time name="diag">    3.46    0.78</time>
   <time name="diis">    6.83    3.00</time>
   <time name="orth">    0.12    0.06</time>
   <time name="total">   22.65    6.04</time>
   <energy>
    <i name="e_fr_energy">   -676.37162355 </i>
    <i name="e_wo_entrp">   -675.97573361 </i>
    <i name="e_0_energy">   -676.17367858 </i>
   </energy>
  </scstep>
  <scstep>
   <time name="diag">    3.51    0.78</time>
   <time name="diis">    5.74    2.46</time>
   <time name="orth">    0.12    0.06</time>
   <time name="total">   21.65    5.52</time>
   <energy>
    <i name="e_fr_energy">   -676.37167641 </i>
    <i name="e_wo_entrp">   -675.97577166 </i>
    <i name="e_0_energy">   -676.17372404 </i>
   </energy>
  </scstep>
  <scstep>
   <time name="diag">    3.52    0.78</time>
   <time name="diis">    4.91    2.06</time>
   <time name="orth">    0.12    0.06</time>
   <time name="total">   20.96    5.14</time>
   <energy>
    <i name="e_fr_energy">   -676.37167918 </i>
    <i name="e_wo_entrp">   -675.97576339 </i>
    <i name="e_0_energy">   -676.17372128 </i>
   </energy>
  </scstep>
  <scstep>
   <time name="diag">    3.50    0.78</time>
   <time name="diis">    4.64    1.92</time>
   <time name="orth">    0.12    0.06</time>
   <time name="total">   20.69    4.99</time>
   <energy>
    <i name="e_fr_energy">   -676.37168069 </i>
    <i name="e_wo_entrp">   -675.97575874 </i>
    <i name="e_0_energy">   -676.17371971 </i>
   </energy>
  </scstep>
  <scstep>
   <time name="diag">    3.37    0.78</time>
   <time name="diis">    4.01    1.58</time>
   <time name="orth">    0.12    0.06</time>
   <time name="total">   16.74    3.84</time>
   <energy>
    <i name="alphaZ">    292.45958487 </i>
    <i name="ewald">  29163.11843320 </i>
    <i name="hartreedc"> -41756.88989316 </i>
    <i name="XCdc">    277.38152500 </i>
    <i name="pawpsdc">   4698.04592570 </i>
    <i name="pawaedc">  -3918.39982648 </i>
    <i name="eentropy">     -0.39592117 </i>
    <i name="bandstr">  -1442.03415484 </i>
    <i name="atom">  12010.34264613 </i>
    <i name="e_fr_energy">   -676.37168074 </i>
    <i name="e_wo_entrp">   -675.97575957 </i>
    <i name="e_0_energy">   -676.17372016 </i>
   </energy>
  </scstep>
  <structure>
   <crystal>
    <varray name="basis" >
     <v>       9.28426200       0.00000000       0.00000000 </v>
     <v>       0.00000000      10.72054200       0.00000000 </v>
     <v>       0.00000000       0.00000000      18.22724100 </v>
    </varray>
    <i name="volume">   1814.19959687 </i>
    <varray name="rec_basis" >
     <v>       0.10770915       0.00000000       0.00000000 </v>
     <v>       0.00000000       0.09327887       0.00000000 </v>
     <v>       0.00000000       0.00000000       0.05486294 </v>
    </varray>
   </crystal>
   <varray name="positions" >
    <v>       0.00000000       0.00000000       0.31213000 </v>
    <v>       0.16666700       0.25000000       0.31213000 </v>
    <v>      -0.00000000       0.33330462       0.44522553 </v>
    <v>       0.16666700       0.08330462       0.44522553 </v>
    <v>       0.00000000       0.16666600       0.03482200 </v>
    <v>       0.16666700       0.41666600       0.03482200 </v>
    <v>       0.00000000       0.33333300       0.17351800 </v>
    <v>       0.16666700       0.08333300       0.17351800 </v>
    <v>       0.33333300       0.00000000       0.31213000 </v>
    <v>       0.50000000       0.25000000       0.31213000 </v>
    <v>       0.33333300       0.33330562       0.44522553 </v>
    <v>       0.50000000       0.08330462       0.44522553 </v>
    <v>       0.33333300       0.16666600       0.03482200 </v>
    <v>       0.50000000       0.41666600       0.03482200 </v>
    <v>       0.33333300       0.33333400       0.17351800 </v>
    <v>       0.50000000       0.08333300       0.17351800 </v>
    <v>       0.66666700       0.00000000       0.31213000 </v>
    <v>       0.83333300       0.25000000       0.31213000 </v>
    <v>       0.66666700       0.33330462       0.44522553 </v>
    <v>       0.83333300       0.08330462       0.44522553 </v>
    <v>       0.66666700       0.16666600       0.03482200 </v>
    <v>       0.83333300       0.41666600       0.03482200 </v>
    <v>       0.66666700       0.33333300       0.17351800 </v>
    <v>       0.83333300       0.08333300       0.17351800 </v>
    <v>       0.00000000       0.50000000       0.31213000 </v>
    <v>       0.16666700       0.75000000       0.31213000 </v>
    <v>       0.00000000       0.83330462       0.44522553 </v>
    <v>       0.16666700       0.58330462       0.44522553 </v>
    <v>       0.00000000       0.66666600       0.03482200 </v>
    <v>       0.16666700       0.91666600       0.03482200 </v>
    <v>       0.00000000       0.83333300       0.17351800 </v>
    <v>       0.16666700       0.58333300       0.17351800 </v>
    <v>       0.33333300       0.50000000       0.31213000 </v>
    <v>       0.50000000       0.75000000       0.31213000 </v>
    <v>       0.33333300       0.83330462       0.44522553 </v>
    <v>       0.50000000       0.58330462       0.44522553 </v>
    <v>       0.33333300       0.66666600       0.03482200 </v>
    <v>       0.50000000       0.91666600       0.03482200 </v>
    <v>       0.33333300       0.83333300       0.17351800 </v>
    <v>       0.50000000       0.58333300       0.17351800 </v>
    <v>       0.66666700       0.50000000       0.31213000 </v>
    <v>       0.83333300       0.75000000       0.31213000 </v>
    <v>       0.66666700       0.83330462       0.44522553 </v>
    <v>       0.83333300       0.58330462       0.44522553 </v>
    <v>       0.66666700       0.66666600       0.03482200 </v>
    <v>       0.83333300       0.91666600       0.03482200 </v>
    <v>       0.66666700       0.83333300       0.17351800 </v>
    <v>       0.83333300       0.58333300       0.17351800 </v>
    <v>       0.00000000       0.00000000       0.00000000 </v>
    <v>       0.16666700       0.25000000       0.00000000 </v>
    <v>      -0.00000000       0.00003930       0.42385452 </v>
    <v>       0.16666700       0.25003930       0.42385452 </v>
    <v>       0.00000000       0.16666600       0.13894900 </v>
    <v>       0.16666700       0.41666600       0.13894900 </v>
    <v>       0.00000000       0.33333300       0.27764900 </v>
    <v>       0.16666700       0.08333300       0.27764900 </v>
    <v>       0.33333300       0.00000000       0.00000000 </v>
    <v>       0.50000000       0.25000000       0.00000000 </v>
    <v>       0.33333300       0.00003930       0.42385452 </v>
    <v>       0.50000000       0.25003930       0.42385452 </v>
    <v>       0.33333300       0.16666600       0.13894900 </v>
    <v>       0.50000000       0.41666600       0.13894900 </v>
    <v>       0.33333300       0.33333400       0.27764900 </v>
    <v>       0.50000000       0.08333300       0.27764900 </v>
    <v>       0.66666700       0.00000000       0.00000000 </v>
    <v>       0.83333300       0.25000000       0.00000000 </v>
    <v>       0.66666700       0.00003930       0.42385452 </v>
    <v>       0.83333300       0.25003930       0.42385452 </v>
    <v>       0.66666700       0.16666600       0.13894900 </v>
    <v>       0.83333300       0.41666600       0.13894900 </v>
    <v>       0.66666700       0.33333300       0.27764900 </v>
    <v>       0.83333300       0.08333300       0.27764900 </v>
    <v>       0.00000000       0.50000000       0.00000000 </v>
    <v>       0.16666700       0.75000000       0.00000000 </v>
    <v>       0.00000000       0.50003930       0.42385452 </v>
    <v>       0.16666700       0.75003930       0.42385452 </v>
    <v>       0.00000000       0.66666600       0.13894900 </v>
    <v>       0.16666700       0.91666600       0.13894900 </v>
    <v>       0.00000000       0.83333300       0.27764900 </v>
    <v>       0.16666700       0.58333300       0.27764900 </v>
    <v>       0.33333300       0.50000000       0.00000000 </v>
    <v>       0.50000000       0.75000000       0.00000000 </v>
    <v>       0.33333300       0.50003930       0.42385452 </v>
    <v>       0.50000000       0.75003930       0.42385452 </v>
    <v>       0.33333300       0.66666600       0.13894900 </v>
    <v>       0.50000000       0.91666600       0.13894900 </v>
    <v>       0.33333300       0.83333300       0.27764900 </v>
    <v>       0.50000000       0.58333300       0.27764900 </v>
    <v>       0.66666700       0.50000000       0.00000000 </v>
    <v>       0.83333300       0.75000000       0.00000000 </v>
    <v>       0.66666700       0.50003930       0.42385452 </v>
    <v>       0.83333300       0.75003930       0.42385452 </v>
    <v>       0.66666700       0.66666600       0.13894900 </v>
    <v>       0.83333300       0.91666600       0.13894900 </v>
    <v>       0.66666700       0.83333300       0.27764900 </v>
    <v>       0.83333300       0.58333300       0.27764900 </v>
   </varray>
  </structure>
  <varray name="forces" >
   <v>      -0.00000000      -0.00055160      -0.54822652 </v>
   <v>      -0.00000000      -0.00055160      -0.54822652 </v>
   <v>      -0.00000000       0.01877415      -0.27412590 </v>
   <v>      -0.00000000       0.01877415      -0.27412590 </v>
   <v>       0.00000000      -0.00452887      -1.02508995 </v>
   <v>       0.00000000      -0.00452887      -1.02508995 </v>
   <v>       0.00000000      -0.00110411      -0.67582208 </v>
   <v>       0.00000000      -0.00110411      -0.67582208 </v>
   <v>       0.00000000      -0.00055160      -0.54822652 </v>
   <v>       0.00000000      -0.00055160      -0.54822652 </v>
   <v>       0.00000000       0.01877415      -0.27412590 </v>
   <v>      -0.00000000       0.01877415      -0.27412590 </v>
   <v>      -0.00000000      -0.00452887      -1.02508995 </v>
   <v>       0.00000000      -0.00452887      -1.02508995 </v>
   <v>       0.00000000      -0.00110411      -0.67582208 </v>
   <v>      -0.00000000      -0.00110411      -0.67582208 </v>
   <v>      -0.00000000      -0.00055160      -0.54822652 </v>
   <v>      -0.00000000      -0.00055160      -0.54822652 </v>
   <v>      -0.00000000       0.01877415      -0.27412590 </v>
   <v>       0.00000000       0.01877415      -0.27412590 </v>
   <v>      -0.00000000      -0.00452887      -1.02508995 </v>
   <v>       0.00000000      -0.00452887      -1.02508995 </v>
   <v>       0.00000000      -0.00110411      -0.67582208 </v>
   <v>       0.00000000      -0.00110411      -0.67582208 </v>
   <v>       0.00000000      -0.00055160      -0.54822652 </v>
   <v>       0.00000000      -0.00055160      -0.54822652 </v>
   <v>      -0.00000000       0.01877415      -0.27412590 </v>
   <v>      -0.00000000       0.01877415      -0.27412590 </v>
   <v>      -0.00000000      -0.00452887      -1.02508995 </v>
   <v>      -0.00000000      -0.00452887      -1.02508995 </v>
   <v>       0.00000000      -0.00110411      -0.67582208 </v>
   <v>       0.00000000      -0.00110411      -0.67582208 </v>
   <v>      -0.00000000      -0.00055160      -0.54822652 </v>
   <v>      -0.00000000      -0.00055160      -0.54822652 </v>
   <v>      -0.00000000       0.01877415      -0.27412590 </v>
   <v>       0.00000000       0.01877415      -0.27412590 </v>
   <v>       0.00000000      -0.00452887      -1.02508995 </v>
   <v>      -0.00000000      -0.00452887      -1.02508995 </v>
   <v>       0.00000000      -0.00110411      -0.67582208 </v>
   <v>       0.00000000      -0.00110411      -0.67582208 </v>
   <v>       0.00000000      -0.00055160      -0.54822652 </v>
   <v>      -0.00000000      -0.00055160      -0.54822652 </v>
   <v>      -0.00000000       0.01877415      -0.27412590 </v>
   <v>       0.00000000       0.01877415      -0.27412590 </v>
   <v>       0.00000000      -0.00452887      -1.02508995 </v>
   <v>      -0.00000000      -0.00452887      -1.02508995 </v>
   <v>       0.00000000      -0.00110411      -0.67582208 </v>
   <v>       0.00000000      -0.00110411      -0.67582208 </v>
   <v>      -0.00000000       0.00345670       0.68619841 </v>
   <v>      -0.00000000       0.00345670       0.68619841 </v>
   <v>       0.00000000      -0.02007425      -0.18940169 </v>
   <v>       0.00000000      -0.02007425      -0.18940169 </v>
   <v>      -0.00000000       0.00201211       0.63225743 </v>
   <v>      -0.00000000       0.00201211       0.63225743 </v>
   <v>      -0.00000000       0.00201587       1.39421030 </v>
   <v>       0.00000000       0.00201587       1.39421030 </v>
   <v>       0.00000000       0.00345670       0.68619841 </v>
   <v>      -0.00000000       0.00345670       0.68619841 </v>
   <v>      -0.00000000      -0.02007425      -0.18940169 </v>
   <v>      -0.00000000      -0.02007425      -0.18940169 </v>
   <v>      -0.00000000       0.00201211       0.63225743 </v>
   <v>       0.00000000       0.00201211       0.63225743 </v>
   <v>      -0.00000000       0.00201587       1.39421030 </v>
   <v>       0.00000000       0.00201587       1.39421030 </v>
   <v>      -0.00000000       0.00345670       0.68619841 </v>
   <v>      -0.00000000       0.00345670       0.68619841 </v>
   <v>       0.00000000      -0.02007425      -0.18940169 </v>
   <v>      -0.00000000      -0.02007425      -0.18940169 </v>
   <v>      -0.00000000       0.00201211       0.63225743 </v>
   <v>      -0.00000000       0.00201211       0.63225743 </v>
   <v>       0.00000000       0.00201587       1.39421030 </v>
   <v>      -0.00000000       0.00201587       1.39421030 </v>
   <v>      -0.00000000       0.00345670       0.68619841 </v>
   <v>      -0.00000000       0.00345670       0.68619841 </v>
   <v>      -0.00000000      -0.02007425      -0.18940169 </v>
   <v>       0.00000000      -0.02007425      -0.18940169 </v>
   <v>      -0.00000000       0.00201211       0.63225743 </v>
   <v>       0.00000000       0.00201211       0.63225743 </v>
   <v>      -0.00000000       0.00201587       1.39421030 </v>
   <v>       0.00000000       0.00201587       1.39421030 </v>
   <v>       0.00000000       0.00345670       0.68619841 </v>
   <v>       0.00000000       0.00345670       0.68619841 </v>
   <v>       0.00000000      -0.02007425      -0.18940169 </v>
   <v>      -0.00000000      -0.02007425      -0.18940169 </v>
   <v>       0.00000000       0.00201211       0.63225743 </v>
   <v>      -0.00000000       0.00201211       0.63225743 </v>
   <v>      -0.00000000       0.00201587       1.39421030 </v>
   <v>      -0.00000000       0.00201587       1.39421030 </v>
   <v>      -0.00000000       0.00345670       0.68619841 </v>
   <v>       0.00000000       0.00345670       0.68619841 </v>
   <v>       0.00000000      -0.02007425      -0.18940169 </v>
   <v>       0.00000000      -0.02007425      -0.18940169 </v>
   <v>       0.00000000       0.00201211       0.63225743 </v>
   <v>      -0.00000000       0.00201211       0.63225743 </v>
   <v>       0.00000000       0.00201587       1.39421030 </v>
   <v>      -0.00000000       0.00201587       1.39421030 </v>
  </varray>
  <varray name="stress" >
   <v>      11.11355520       0.00000000       0.00000000 </v>
   <v>       0.00000000      10.95449849       0.11229728 </v>
   <v>       0.00000000       0.11229730     -10.41631884 </v>
  </varray>
  <energy>
   <i name="e_fr_energy">   -676.37168074 </i>
   <i name="e_wo_entrp">   -675.97575957 </i>
   <i name="e_0_energy">   -676.17372016 </i>
  </energy>
  <time name="totalsc">  556.80  140.44</time>
 </calculation>
 <calculation>
  <scstep>
   <time name="dav">   47.62    6.84</time>
   <time name="total">   60.35    9.02</time>
   <energy>
    <i name="alphaZ">    292.45958487 </i>
    <i name="ewald">  29162.91264642 </i>
    <i name="hartreedc"> -41756.56047793 </i>
    <i name="XCdc">    277.38473452 </i>
    <i name="pawpsdc">   4698.04653159 </i>
    <i name="pawaedc">  -3918.40043276 </i>
    <i name="eentropy">     -0.39618710 </i>
    <i name="bandstr">  -1442.16106706 </i>
    <i name="atom">  12010.34264613 </i>
    <i name="e_fr_energy">   -676.37202131 </i>
    <i name="e_wo_entrp">   -675.97583421 </i>
    <i name="e_0_energy">   -676.17392776 </i>
   </energy>
  </scstep>
  <scstep>
   <time name="diag">    3.47    0.78</time>
   <time name="diis">    6.92    3.05</time>
   <time name="orth">    0.12    0.06</time>
   <time name="total">   22.55    6.07</time>
   <energy>
    <i name="e_fr_energy">   -676.37206916 </i>
    <i name="e_wo_entrp">   -675.97580031 </i>
    <i name="e_0_energy">   -676.17393473 </i>
   </energy>
  </scstep>
  <scstep>
   <time name="diag">    3.44    0.78</time>
   <time name="diis">    7.14    3.15</time>
   <time name="orth">    0.12    0.06</time>
   <time name="total">   22.95    6.20</time>
   <energy>
    <i name="e_fr_energy">   -676.37202701 </i>
[...]
       <r>    -6.1440     8.0465    99.4524 </r>
       <r>    -6.0664     9.7890   100.2123 </r>
       <r>    -5.9888    13.7250   101.2778 </r>
       <r>    -5.9112    23.3646   103.0915 </r>
       <r>    -5.8335    28.7070   105.3199 </r>
       <r>    -5.7559    27.8637   107.4829 </r>
       <r>    -5.6783    28.9836   109.7329 </r>
       <r>    -5.6007    26.6567   111.8021 </r>
       <r>    -5.5230    28.8662   114.0430 </r>
       <r>    -5.4454    38.5883   117.0385 </r>
       <r>    -5.3678    46.3042   120.6329 </r>
       <r>    -5.2901    41.7406   123.8732 </r>
       <r>    -5.2125    37.4568   126.7808 </r>
       <r>    -5.1349    35.2045   129.5137 </r>
       <r>    -5.0573    34.9301   132.2252 </r>
       <r>    -4.9796    41.3929   135.4384 </r>
       <r>    -4.9020    42.5047   138.7380 </r>
       <r>    -4.8244    27.4504   140.8689 </r>
       <r>    -4.7467    17.9241   142.2603 </r>
       <r>    -4.6691    19.7386   143.7925 </r>
       <r>    -4.5915    16.8093   145.0974 </r>
       <r>    -4.5139    13.9606   146.1811 </r>
       <r>    -4.4362    18.8578   147.6450 </r>
       <r>    -4.3586    25.2361   149.6040 </r>
       <r>    -4.2810    20.5822   151.2017 </r>
       <r>    -4.2034    12.8250   152.1973 </r>
       <r>    -4.1257    12.8459   153.1945 </r>
       <r>    -4.0481    12.5925   154.1720 </r>
       <r>    -3.9705    14.3800   155.2883 </r>
       <r>    -3.8928    24.1092   157.1598 </r>
       <r>    -3.8152    30.0019   159.4888 </r>
       <r>    -3.7376    26.8558   161.5736 </r>
       <r>    -3.6600    23.1446   163.3702 </r>
       <r>    -3.5823    20.3815   164.9524 </r>
       <r>    -3.5047    17.4684   166.3084 </r>
       <r>    -3.4271    17.8179   167.6916 </r>
       <r>    -3.3495    26.3062   169.7337 </r>
       <r>    -3.2718    36.3637   172.5565 </r>
       <r>    -3.1942    41.8083   175.8019 </r>
       <r>    -3.1166    37.5027   178.7132 </r>
       <r>    -3.0389    25.9766   180.7297 </r>
       <r>    -2.9613    26.3441   182.7747 </r>
       <r>    -2.8837    39.9573   185.8765 </r>
       <r>    -2.8061    48.1925   189.6175 </r>
       <r>    -2.7284    37.6312   192.5388 </r>
       <r>    -2.6508    27.5566   194.6779 </r>
       <r>    -2.5732    27.8219   196.8376 </r>
       <r>    -2.4956    33.9324   199.4717 </r>
       <r>    -2.4179    41.0939   202.6617 </r>
       <r>    -2.3403    35.5513   205.4215 </r>
       <r>    -2.2627    23.3225   207.2320 </r>
       <r>    -2.1850    27.4324   209.3615 </r>
       <r>    -2.1074    37.0159   212.2349 </r>
       <r>    -2.0298    33.1782   214.8104 </r>
       <r>    -1.9522    32.1164   217.3036 </r>
       <r>    -1.8745    37.6596   220.2270 </r>
       <r>    -1.7969    36.3982   223.0525 </r>
       <r>    -1.7193    44.2385   226.4866 </r>
       <r>    -1.6417    60.1620   231.1568 </r>
       <r>    -1.5640    60.9944   235.8916 </r>
       <r>    -1.4864    58.6081   240.4412 </r>
       <r>    -1.4088    56.5210   244.8288 </r>
       <r>    -1.3311    53.2286   248.9608 </r>
       <r>    -1.2535    47.7581   252.6682 </r>
       <r>    -1.1759    37.5944   255.5865 </r>
       <r>    -1.0983    41.1666   258.7822 </r>
       <r>    -1.0206    46.8412   262.4183 </r>
       <r>    -0.9430    45.4744   265.9484 </r>
       <r>    -0.8654    46.5330   269.5606 </r>
       <r>    -0.7878    47.1401   273.2200 </r>
       <r>    -0.7101    40.9150   276.3961 </r>
       <r>    -0.6325    43.5862   279.7796 </r>
       <r>    -0.5549    51.3206   283.7635 </r>
       <r>    -0.4772    46.8550   287.4007 </r>
       <r>    -0.3996    34.6831   290.0931 </r>
       <r>    -0.3220    32.8815   292.6456 </r>
       <r>    -0.2444    33.6062   295.2544 </r>
       <r>    -0.1667    34.5382   297.9355 </r>
       <r>    -0.0891    37.0908   300.8147 </r>
       <r>    -0.0115    37.8797   303.7552 </r>
       <r>     0.0661    50.0945   307.6439 </r>
       <r>     0.1438    68.4942   312.9610 </r>
       <r>     0.2214    79.0536   319.0977 </r>
       <r>     0.2990    73.2278   324.7822 </r>
       <r>     0.3767    55.8746   329.1196 </r>
       <r>     0.4543    49.2328   332.9414 </r>
       <r>     0.5319    48.1674   336.6805 </r>
       <r>     0.6095    36.0856   339.4817 </r>
       <r>     0.6872    23.7737   341.3272 </r>
       <r>     0.7648    25.0438   343.2713 </r>
       <r>     0.8424    26.5290   345.3307 </r>
       <r>     0.9201    22.7493   347.0966 </r>
       <r>     0.9977    16.6085   348.3859 </r>
       <r>     1.0753    16.7002   349.6823 </r>
       <r>     1.1529    18.1162   351.0886 </r>
       <r>     1.2306    15.6696   352.3050 </r>
       <r>     1.3082    14.7376   353.4491 </r>
       <r>     1.3858    14.3457   354.5627 </r>
       <r>     1.4634    12.6947   355.5481 </r>
       <r>     1.5411     7.8238   356.1555 </r>
       <r>     1.6187     4.8401   356.5312 </r>
       <r>     1.6963     6.6778   357.0496 </r>
       <r>     1.7740     9.6479   357.7985 </r>
       <r>     1.8516     7.6684   358.3938 </r>
       <r>     1.9292     6.2544   358.8793 </r>
       <r>     2.0068     8.1094   359.5088 </r>
       <r>     2.0845    10.8887   360.3541 </r>
       <r>     2.1621    15.7571   361.5773 </r>
       <r>     2.2397    25.6995   363.5723 </r>
       <r>     2.3173    38.4274   366.5553 </r>
       <r>     2.3950    57.7636   371.0393 </r>
       <r>     2.4726    75.6428   376.9113 </r>
       <r>     2.5502    80.7657   383.1809 </r>
       <r>     2.6279    80.8206   389.4548 </r>
       <r>     2.7055    84.4820   396.0129 </r>
       <r>     2.7831    73.3562   401.7074 </r>
       <r>     2.8607    49.9095   405.5817 </r>
       <r>     2.9384    24.3500   407.4720 </r>
       <r>     3.0160     6.1459   407.9491 </r>
       <r>     3.0936     0.6324   407.9982 </r>
       <r>     3.1712     0.0235   408.0000 </r>
       <r>     3.2489     0.0003   408.0000 </r>
       <r>     3.3265     0.0000   408.0000 </r>
       <r>     3.4041     0.0000   408.0000 </r>
       <r>     3.4818     0.0000   408.0000 </r>
       <r>     3.5594     0.0000   408.0000 </r>
       <r>     3.6370     0.0000   408.0000 </r>
       <r>     3.7146     0.0000   408.0000 </r>
       <r>     3.7923     0.0000   408.0000 </r>
       <r>     3.8699     0.0000   408.0000 </r>
       <r>     3.9475     0.0000   408.0000 </r>
       <r>     4.0251     0.0006   408.0001 </r>
       <r>     4.1028     0.0278   408.0022 </r>
       <r>     4.1804     0.3874   408.0323 </r>
       <r>     4.2580     1.8265   408.1741 </r>
       <r>     4.3357     3.4225   408.4397 </r>
       <r>     4.4133     4.3893   408.7805 </r>
       <r>     4.4909     5.6104   409.2160 </r>
       <r>     4.5685     5.6264   409.6528 </r>
       <r>     4.6462     5.7747   410.1010 </r>
       <r>     4.7238     7.6903   410.6980 </r>
       <r>     4.8014    11.3881   411.5820 </r>
       <r>     4.8790    11.0284   412.4381 </r>
       <r>     4.9567     6.4859   412.9416 </r>
       <r>     5.0343     5.8267   413.3939 </r>
       <r>     5.1119     6.1494   413.8713 </r>
       <r>     5.1896     4.3173   414.2064 </r>
       <r>     5.2672     4.0290   414.5192 </r>
       <r>     5.3448     4.2273   414.8474 </r>
       <r>     5.4224     5.9371   415.3082 </r>
       <r>     5.5001    15.0348   416.4754 </r>
       <r>     5.5777    24.7022   418.3929 </r>
       <r>     5.6553    22.2099   420.1170 </r>
       <r>     5.7330    17.1559   421.4488 </r>
       <r>     5.8106    20.0038   423.0016 </r>
       <r>     5.8882    21.1119   424.6405 </r>
       <r>     5.9658    23.0447   426.4294 </r>
       <r>     6.0435    29.6514   428.7311 </r>
       <r>     6.1211    26.3948   430.7801 </r>
       <r>     6.1987    17.6044   432.1467 </r>
       <r>     6.2763    14.1531   433.2454 </r>
       <r>     6.3540    14.0126   434.3331 </r>
       <r>     6.4316    20.9718   435.9611 </r>
       <r>     6.5092    29.7734   438.2723 </r>
       <r>     6.5869    37.8723   441.2123 </r>
       <r>     6.6645    43.6424   444.6001 </r>
       <r>     6.7421    38.2170   447.5668 </r>
       <r>     6.8197    30.5273   449.9365 </r>
       <r>     6.8974    34.1039   452.5839 </r>
       <r>     6.9750    37.1518   455.4679 </r>
       <r>     7.0526    34.2223   458.1245 </r>
       <r>     7.1302    41.3455   461.3341 </r>
       <r>     7.2079    51.8901   465.3622 </r>
       <r>     7.2855    55.6615   469.6830 </r>
       <r>     7.3631    47.3629   473.3597 </r>
       <r>     7.4408    35.9784   476.1526 </r>
       <r>     7.5184    31.9714   478.6344 </r>
       <r>     7.5960    22.7720   480.4022 </r>
       <r>     7.6736    10.1462   481.1898 </r>
       <r>     7.7513     5.2644   481.5985 </r>
       <r>     7.8289     3.6577   481.8824 </r>
       <r>     7.9065     1.3220   481.9850 </r>
       <r>     7.9841     0.1837   481.9993 </r>
       <r>     8.0618     0.0090   482.0000 </r>
       <r>     8.1394     0.0001   482.0000 </r>
       <r>     8.2170     0.0000   482.0000 </r>
       <r>     8.2947     0.0000   482.0000 </r>
       <r>     8.3723     0.0000   482.0000 </r>
       <r>     8.4499     0.0000   482.0000 </r>
       <r>     8.5275     0.0000   482.0000 </r>
       <r>     8.6052     0.0000   482.0000 </r>
       <r>     8.6828     0.0000   482.0000 </r>
       <r>     8.7604     0.0000   482.0000 </r>
       <r>     8.8380     0.0000   482.0000 </r>
      </set>
     </set>
    </array>
   </total>
  </dos>
 </calculation>
 <structure name="finalpos" >
  <crystal>
   <varray name="basis" >
    <v>       9.28426200       0.00000000       0.00000000 </v>
    <v>       0.00000000      10.72054200       0.00000000 </v>
    <v>       0.00000000       0.00000000      18.22724100 </v>
   </varray>
   <i name="volume">   1814.19959687 </i>
   <varray name="rec_basis" >
    <v>       0.10770915       0.00000000       0.00000000 </v>
    <v>       0.00000000       0.09327887       0.00000000 </v>
    <v>       0.00000000       0.00000000       0.05486294 </v>
   </varray>
  </crystal>
  <varray name="positions" >
   <v>       0.00000000       0.00000000       0.31213000 </v>
   <v>       0.16666700       0.25000000       0.31213000 </v>
   <v>      -0.00000000       0.33335026       0.44158548 </v>
   <v>       0.16666700       0.08335026       0.44158548 </v>
   <v>       0.00000000       0.16666600       0.03482200 </v>
   <v>       0.16666700       0.41666600       0.03482200 </v>
   <v>       0.00000000       0.33333300       0.17351800 </v>
   <v>       0.16666700       0.08333300       0.17351800 </v>
   <v>       0.33333300       0.00000000       0.31213000 </v>
   <v>       0.50000000       0.25000000       0.31213000 </v>
   <v>       0.33333300       0.33335126       0.44158548 </v>
   <v>       0.50000000       0.08335026       0.44158548 </v>
   <v>       0.33333300       0.16666600       0.03482200 </v>
   <v>       0.50000000       0.41666600       0.03482200 </v>
   <v>       0.33333300       0.33333400       0.17351800 </v>
   <v>       0.50000000       0.08333300       0.17351800 </v>
   <v>       0.66666700       0.00000000       0.31213000 </v>
   <v>       0.83333300       0.25000000       0.31213000 </v>
   <v>       0.66666700       0.33335026       0.44158548 </v>
   <v>       0.83333300       0.08335026       0.44158548 </v>
   <v>       0.66666700       0.16666600       0.03482200 </v>
   <v>       0.83333300       0.41666600       0.03482200 </v>
   <v>       0.66666700       0.33333300       0.17351800 </v>
   <v>       0.83333300       0.08333300       0.17351800 </v>
   <v>       0.00000000       0.50000000       0.31213000 </v>
   <v>       0.16666700       0.75000000       0.31213000 </v>
   <v>      -0.00000000       0.83335026       0.44158548 </v>
   <v>       0.16666700       0.58335026       0.44158548 </v>
   <v>       0.00000000       0.66666600       0.03482200 </v>
   <v>       0.16666700       0.91666600       0.03482200 </v>
   <v>       0.00000000       0.83333300       0.17351800 </v>
   <v>       0.16666700       0.58333300       0.17351800 </v>
   <v>       0.33333300       0.50000000       0.31213000 </v>
   <v>       0.50000000       0.75000000       0.31213000 </v>
   <v>       0.33333300       0.83335026       0.44158548 </v>
   <v>       0.50000000       0.58335026       0.44158548 </v>
   <v>       0.33333300       0.66666600       0.03482200 </v>
   <v>       0.50000000       0.91666600       0.03482200 </v>
   <v>       0.33333300       0.83333300       0.17351800 </v>
   <v>       0.50000000       0.58333300       0.17351800 </v>
   <v>       0.66666700       0.50000000       0.31213000 </v>
   <v>       0.83333300       0.75000000       0.31213000 </v>
   <v>       0.66666700       0.83335026       0.44158548 </v>
   <v>       0.83333300       0.58335026       0.44158548 </v>
   <v>       0.66666700       0.66666600       0.03482200 </v>
   <v>       0.83333300       0.91666600       0.03482200 </v>
   <v>       0.66666700       0.83333300       0.17351800 </v>
   <v>       0.83333300       0.58333300       0.17351800 </v>
   <v>       0.00000000       0.00000000       0.00000000 </v>
   <v>       0.16666700       0.25000000       0.00000000 </v>
   <v>      -0.00000000       0.00000026       0.42115151 </v>
   <v>       0.16666700       0.25000026       0.42115151 </v>
   <v>       0.00000000       0.16666600       0.13894900 </v>
   <v>       0.16666700       0.41666600       0.13894900 </v>
   <v>       0.00000000       0.33333300       0.27764900 </v>
   <v>       0.16666700       0.08333300       0.27764900 </v>
   <v>       0.33333300       0.00000000       0.00000000 </v>
   <v>       0.50000000       0.25000000       0.00000000 </v>
   <v>       0.33333300       0.00000026       0.42115151 </v>
   <v>       0.50000000       0.25000026       0.42115151 </v>
   <v>       0.33333300       0.16666600       0.13894900 </v>
   <v>       0.50000000       0.41666600       0.13894900 </v>
   <v>       0.33333300       0.33333400       0.27764900 </v>
   <v>       0.50000000       0.08333300       0.27764900 </v>
   <v>       0.66666700       0.00000000       0.00000000 </v>
   <v>       0.83333300       0.25000000       0.00000000 </v>
   <v>       0.66666700       0.00000026       0.42115151 </v>
   <v>       0.83333300       0.25000026       0.42115151 </v>
   <v>       0.66666700       0.16666600       0.13894900 </v>
   <v>       0.83333300       0.41666600       0.13894900 </v>
   <v>       0.66666700       0.33333300       0.27764900 </v>
   <v>       0.83333300       0.08333300       0.27764900 </v>
   <v>       0.00000000       0.50000000       0.00000000 </v>
   <v>       0.16666700       0.75000000       0.00000000 </v>
   <v>       0.00000000       0.50000026       0.42115151 </v>
   <v>       0.16666700       0.75000026       0.42115151 </v>
   <v>       0.00000000       0.66666600       0.13894900 </v>
   <v>       0.16666700       0.91666600       0.13894900 </v>
   <v>       0.00000000       0.83333300       0.27764900 </v>
   <v>       0.16666700       0.58333300       0.27764900 </v>
   <v>       0.33333300       0.50000000       0.00000000 </v>
   <v>       0.50000000       0.75000000       0.00000000 </v>
   <v>       0.33333300       0.50000026       0.42115151 </v>
   <v>       0.50000000       0.75000026       0.42115151 </v>
   <v>       0.33333300       0.66666600       0.13894900 </v>
   <v>       0.50000000       0.91666600       0.13894900 </v>
   <v>       0.33333300       0.83333300       0.27764900 </v>
   <v>       0.50000000       0.58333300       0.27764900 </v>
   <v>       0.66666700       0.50000000       0.00000000 </v>
   <v>       0.83333300       0.75000000       0.00000000 </v>
   <v>       0.66666700       0.50000026       0.42115151 </v>
   <v>       0.83333300       0.75000026       0.42115151 </v>
   <v>       0.66666700       0.66666600       0.13894900 </v>
   <v>       0.83333300       0.91666600       0.13894900 </v>
   <v>       0.66666700       0.83333300       0.27764900 </v>
   <v>       0.83333300       0.58333300       0.27764900 </v>
  </varray>
  <varray name="selective"  type="logical" >
   <v type="logical" >  F  F  F </v>
   <v type="logical" >  F  F  F </v>
   <v type="logical" >  T  T  T </v>
   <v type="logical" >  T  T  T </v>
   <v type="logical" >  F  F  F </v>
   <v type="logical" >  F  F  F </v>
   <v type="logical" >  F  F  F </v>
   <v type="logical" >  F  F  F </v>
   <v type="logical" >  F  F  F </v>
   <v type="logical" >  F  F  F </v>
   <v type="logical" >  T  T  T </v>
   <v type="logical" >  T  T  T </v>
   <v type="logical" >  F  F  F </v>
   <v type="logical" >  F  F  F </v>
   <v type="logical" >  F  F  F </v>
   <v type="logical" >  F  F  F </v>
   <v type="logical" >  F  F  F </v>
   <v type="logical" >  F  F  F </v>
   <v type="logical" >  T  T  T </v>
   <v type="logical" >  T  T  T </v>
   <v type="logical" >  F  F  F </v>
   <v type="logical" >  F  F  F </v>
   <v type="logical" >  F  F  F </v>
   <v type="logical" >  F  F  F </v>
   <v type="logical" >  F  F  F </v>
   <v type="logical" >  F  F  F </v>
   <v type="logical" >  T  T  T </v>
   <v type="logical" >  T  T  T </v>
   <v type="logical" >  F  F  F </v>
   <v type="logical" >  F  F  F </v>
   <v type="logical" >  F  F  F </v>
   <v type="logical" >  F  F  F </v>
   <v type="logical" >  F  F  F </v>
   <v type="logical" >  F  F  F </v>
   <v type="logical" >  T  T  T </v>
   <v type="logical" >  T  T  T </v>
   <v type="logical" >  F  F  F </v>
   <v type="logical" >  F  F  F </v>
   <v type="logical" >  F  F  F </v>
   <v type="logical" >  F  F  F </v>
   <v type="logical" >  F  F  F </v>
   <v type="logical" >  F  F  F </v>
   <v type="logical" >  T  T  T </v>
   <v type="logical" >  T  T  T </v>
   <v type="logical" >  F  F  F </v>
   <v type="logical" >  F  F  F </v>
   <v type="logical" >  F  F  F </v>
   <v type="logical" >  F  F  F </v>
   <v type="logical" >  F  F  F </v>
   <v type="logical" >  F  F  F </v>
   <v type="logical" >  T  T  T </v>
   <v type="logical" >  T  T  T </v>
   <v type="logical" >  F  F  F </v>
   <v type="logical" >  F  F  F </v>
   <v type="logical" >  F  F  F </v>
   <v type="logical" >  F  F  F </v>
   <v type="logical" >  F  F  F </v>
   <v type="logical" >  F  F  F </v>
   <v type="logical" >  T  T  T </v>
   <v type="logical" >  T  T  T </v>
   <v type="logical" >  F  F  F </v>
   <v type="logical" >  F  F  F </v>
   <v type="logical" >  F  F  F </v>
   <v type="logical" >  F  F  F </v>
   <v type="logical" >  F  F  F </v>
   <v type="logical" >  F  F  F </v>
   <v type="logical" >  T  T  T </v>
   <v type="logical" >  T  T  T </v>
   <v type="logical" >  F  F  F </v>
   <v type="logical" >  F  F  F </v>
   <v type="logical" >  F  F  F </v>
   <v type="logical" >  F  F  F </v>
   <v type="logical" >  F  F  F </v>
   <v type="logical" >  F  F  F </v>
   <v type="logical" >  T  T  T </v>
   <v type="logical" >  T  T  T </v>
   <v type="logical" >  F  F  F </v>
   <v type="logical" >  F  F  F </v>
   <v type="logical" >  F  F  F </v>
   <v type="logical" >  F  F  F </v>
   <v type="logical" >  F  F  F </v>
   <v type="logical" >  F  F  F </v>
   <v type="logical" >  T  T  T </v>
   <v type="logical" >  T  T  T </v>
   <v type="logical" >  F  F  F </v>
   <v type="logical" >  F  F  F </v>
   <v type="logical" >  F  F  F </v>
   <v type="logical" >  F  F  F </v>
   <v type="logical" >  F  F  F </v>
   <v type="logical" >  F  F  F </v>
   <v type="logical" >  T  T  T </v>
   <v type="logical" >  T  T  T </v>
   <v type="logical" >  F  F  F </v>
   <v type="logical" >  F  F  F </v>
   <v type="logical" >  F  F  F </v>
   <v type="logical" >  F  F  F </v>
  </varray>
  <nose>
   <v>      -3.00000000       0.00000000       0.00010000       0.00010000 </v>
  </nose>
 </structure>
</modeling>
