ni3al                                   
           1
     9.284262    0.000000    0.000000
     0.000000   10.720542    0.000000
     0.000000    0.000000   18.227241
   C    Si
    48    48
Direct configuration=     1
   0.00000000  0.00000000  0.31213000
   0.16666700  0.25000000  0.31213000
   0.00000000  0.33333300  0.45137100
   0.16666700  0.08333300  0.45137100
   0.00000000  0.16666600  0.03482200
   0.16666700  0.41666600  0.03482200
   0.00000000  0.33333300  0.17351800
   0.16666700  0.08333300  0.17351800
   0.33333300  0.00000000  0.31213000
   0.50000000  0.25000000  0.31213000
   0.33333300  0.33333400  0.45137100
   0.50000000  0.08333300  0.45137100
   0.33333300  0.16666600  0.03482200
   0.50000000  0.41666600  0.03482200
   0.33333300  0.33333400  0.17351800
   0.50000000  0.08333300  0.17351800
   0.66666700  0.00000000  0.31213000
   0.83333300  0.25000000  0.31213000
   0.66666700  0.33333300  0.45137100
   0.83333300  0.08333300  0.45137100
   0.66666700  0.16666600  0.03482200
   0.83333300  0.41666600  0.03482200
   0.66666700  0.33333300  0.17351800
   0.83333300  0.08333300  0.17351800
   0.00000000  0.50000000  0.31213000
   0.16666700  0.75000000  0.31213000
   0.00000000  0.83333300  0.45137100
   0.16666700  0.58333300  0.45137100
   0.00000000  0.66666600  0.03482200
   0.16666700  0.91666600  0.03482200
   0.00000000  0.83333300  0.17351800
   0.16666700  0.58333300  0.17351800
   0.33333300  0.50000000  0.31213000
   0.50000000  0.75000000  0.31213000
   0.33333300  0.83333300  0.45137100
   0.50000000  0.58333300  0.45137100
   0.33333300  0.66666600  0.03482200
   0.50000000  0.91666600  0.03482200
   0.33333300  0.83333300  0.17351800
   0.50000000  0.58333300  0.17351800
   0.66666700  0.50000000  0.31213000
   0.83333300  0.75000000  0.31213000
   0.66666700  0.83333300  0.45137100
   0.83333300  0.58333300  0.45137100
   0.66666700  0.66666600  0.03482200
   0.83333300  0.91666600  0.03482200
   0.66666700  0.83333300  0.17351800
   0.83333300  0.58333300  0.17351800
   0.00000000  0.00000000  0.00000000
   0.16666700  0.25000000  0.00000000
   0.00000000  0.00000000  0.41654900
   0.16666700  0.25000000  0.41654900
   0.00000000  0.16666600  0.13894900
   0.16666700  0.41666600  0.13894900
   0.00000000  0.33333300  0.27764900
   0.16666700  0.08333300  0.27764900
   0.33333300  0.00000000  0.00000000
   0.50000000  0.25000000  0.00000000
   0.33333300  0.00000000  0.41654900
   0.50000000  0.25000000  0.41654900
   0.33333300  0.16666600  0.13894900
   0.50000000  0.41666600  0.13894900
   0.33333300  0.33333400  0.27764900
   0.50000000  0.08333300  0.27764900
   0.66666700  0.00000000  0.00000000
   0.83333300  0.25000000  0.00000000
   0.66666700  0.00000000  0.41654900
   0.83333300  0.25000000  0.41654900
   0.66666700  0.16666600  0.13894900
   0.83333300  0.41666600  0.13894900
   0.66666700  0.33333300  0.27764900
   0.83333300  0.08333300  0.27764900
   0.00000000  0.50000000  0.00000000
   0.16666700  0.75000000  0.00000000
   0.00000000  0.50000000  0.41654900
   0.16666700  0.75000000  0.41654900
   0.00000000  0.66666600  0.13894900
   0.16666700  0.91666600  0.13894900
   0.00000000  0.83333300  0.27764900
   0.16666700  0.58333300  0.27764900
   0.33333300  0.50000000  0.00000000
   0.50000000  0.75000000  0.00000000
   0.33333300  0.50000000  0.41654900
   0.50000000  0.75000000  0.41654900
   0.33333300  0.66666600  0.13894900
   0.50000000  0.91666600  0.13894900
   0.33333300  0.83333300  0.27764900
   0.50000000  0.58333300  0.27764900
   0.66666700  0.50000000  0.00000000
   0.83333300  0.75000000  0.00000000
   0.66666700  0.50000000  0.41654900
   0.83333300  0.75000000  0.41654900
   0.66666700  0.66666600  0.13894900
   0.83333300  0.91666600  0.13894900
   0.66666700  0.83333300  0.27764900
   0.83333300  0.58333300  0.27764900
Direct configuration=     2
   0.00000000  0.00000000  0.31213000
   0.16666700  0.25000000  0.31213000
  -0.00000000  0.33330462  0.44522553
   0.16666700  0.08330462  0.44522553
   0.00000000  0.16666600  0.03482200
   0.16666700  0.41666600  0.03482200
   0.00000000  0.33333300  0.17351800
   0.16666700  0.08333300  0.17351800
   0.33333300  0.00000000  0.31213000
   0.50000000  0.25000000  0.31213000
   0.33333300  0.33330562  0.44522553
   0.50000000  0.08330462  0.44522553
   0.33333300  0.16666600  0.03482200
   0.50000000  0.41666600  0.03482200
   0.33333300  0.33333400  0.17351800
   0.50000000  0.08333300  0.17351800
   0.66666700  0.00000000  0.31213000
   0.83333300  0.25000000  0.31213000
   0.66666700  0.33330462  0.44522553
   0.83333300  0.08330462  0.44522553
   0.66666700  0.16666600  0.03482200
   0.83333300  0.41666600  0.03482200
   0.66666700  0.33333300  0.17351800
   0.83333300  0.08333300  0.17351800
   0.00000000  0.50000000  0.31213000
   0.16666700  0.75000000  0.31213000
   0.00000000  0.83330462  0.44522553
   0.16666700  0.58330462  0.44522553
   0.00000000  0.66666600  0.03482200
   0.16666700  0.91666600  0.03482200
   0.00000000  0.83333300  0.17351800
   0.16666700  0.58333300  0.17351800
   0.33333300  0.50000000  0.31213000
   0.50000000  0.75000000  0.31213000
   0.33333300  0.83330462  0.44522553
   0.50000000  0.58330462  0.44522553
   0.33333300  0.66666600  0.03482200
   0.50000000  0.91666600  0.03482200
   0.33333300  0.83333300  0.17351800
   0.50000000  0.58333300  0.17351800
   0.66666700  0.50000000  0.31213000
   0.83333300  0.75000000  0.31213000
   0.66666700  0.83330462  0.44522553
   0.83333300  0.58330462  0.44522553
   0.66666700  0.66666600  0.03482200
   0.83333300  0.91666600  0.03482200
   0.66666700  0.83333300  0.17351800
   0.83333300  0.58333300  0.17351800
   0.00000000  0.00000000  0.00000000
   0.16666700  0.25000000  0.00000000
  -0.00000000  0.00003930  0.42385452
   0.16666700  0.25003930  0.42385452
   0.00000000  0.16666600  0.13894900
   0.16666700  0.41666600  0.13894900
   0.00000000  0.33333300  0.27764900
   0.16666700  0.08333300  0.27764900
   0.33333300  0.00000000  0.00000000
   0.50000000  0.25000000  0.00000000
   0.33333300  0.00003930  0.42385452
   0.50000000  0.25003930  0.42385452
   0.33333300  0.16666600  0.13894900
   0.50000000  0.41666600  0.13894900
   0.33333300  0.33333400  0.27764900
   0.50000000  0.08333300  0.27764900
   0.66666700  0.00000000  0.00000000
   0.83333300  0.25000000  0.00000000
   0.66666700  0.00003930  0.42385452
   0.83333300  0.25003930  0.42385452
   0.66666700  0.16666600  0.13894900
   0.83333300  0.41666600  0.13894900
   0.66666700  0.33333300  0.27764900
   0.83333300  0.08333300  0.27764900
   0.00000000  0.50000000  0.00000000
   0.16666700  0.75000000  0.00000000
   0.00000000  0.50003930  0.42385452
   0.16666700  0.75003930  0.42385452
   0.00000000  0.66666600  0.13894900
   0.16666700  0.91666600  0.13894900
   0.00000000  0.83333300  0.27764900
   0.16666700  0.58333300  0.27764900
   0.33333300  0.50000000  0.00000000
   0.50000000  0.75000000  0.00000000
   0.33333300  0.50003930  0.42385452
   0.50000000  0.75003930  0.42385452
   0.33333300  0.66666600  0.13894900
   0.50000000  0.91666600  0.13894900
   0.33333300  0.83333300  0.27764900
   0.50000000  0.58333300  0.27764900
   0.66666700  0.50000000  0.00000000
   0.83333300  0.75000000  0.00000000
   0.66666700  0.50003930  0.42385452
   0.83333300  0.75003930  0.42385452
   0.66666700  0.66666600  0.13894900
   0.83333300  0.91666600  0.13894900
   0.66666700  0.83333300  0.27764900
   0.83333300  0.58333300  0.27764900
Direct configuration=     3
   0.00000000  0.00000000  0.31213000
   0.16666700  0.25000000  0.31213000
  -0.00000000  0.33330437  0.44517223
   0.16666700  0.08330437  0.44517223
   0.00000000  0.16666600  0.03482200
   0.16666700  0.41666600  0.03482200
   0.00000000  0.33333300  0.17351800
   0.16666700  0.08333300  0.17351800
   0.33333300  0.00000000  0.31213000
   0.50000000  0.25000000  0.31213000
   0.33333300  0.33330537  0.44517223
   0.50000000  0.08330437  0.44517223
   0.33333300  0.16666600  0.03482200
   0.50000000  0.41666600  0.03482200
   0.33333300  0.33333400  0.17351800
   0.50000000  0.08333300  0.17351800
   0.66666700  0.00000000  0.31213000
   0.83333300  0.25000000  0.31213000
   0.66666700  0.33330437  0.44517223
   0.83333300  0.08330437  0.44517223
   0.66666700  0.16666600  0.03482200
   0.83333300  0.41666600  0.03482200
   0.66666700  0.33333300  0.17351800
   0.83333300  0.08333300  0.17351800
   0.00000000  0.50000000  0.31213000
   0.16666700  0.75000000  0.31213000
   0.00000000  0.83330437  0.44517223
   0.16666700  0.58330437  0.44517223
   0.00000000  0.66666600  0.03482200
   0.16666700  0.91666600  0.03482200
   0.00000000  0.83333300  0.17351800
   0.16666700  0.58333300  0.17351800
   0.33333300  0.50000000  0.31213000
   0.50000000  0.75000000  0.31213000
   0.33333300  0.83330437  0.44517223
   0.50000000  0.58330437  0.44517223
   0.33333300  0.66666600  0.03482200
   0.50000000  0.91666600  0.03482200
   0.33333300  0.83333300  0.17351800
   0.50000000  0.58333300  0.17351800
   0.66666700  0.50000000  0.31213000
   0.83333300  0.75000000  0.31213000
   0.66666700  0.83330437  0.44517223
   0.83333300  0.58330437  0.44517223
   0.66666700  0.66666600  0.03482200
   0.83333300  0.91666600  0.03482200
   0.66666700  0.83333300  0.17351800
   0.83333300  0.58333300  0.17351800
   0.00000000  0.00000000  0.00000000
   0.16666700  0.25000000  0.00000000
  -0.00000000  0.00003964  0.42391787
   0.16666700  0.25003964  0.42391787
   0.00000000  0.16666600  0.13894900
   0.16666700  0.41666600  0.13894900
   0.00000000  0.33333300  0.27764900
   0.16666700  0.08333300  0.27764900
   0.33333300  0.00000000  0.00000000
   0.50000000  0.25000000  0.00000000
   0.33333300  0.00003964  0.42391787
   0.50000000  0.25003964  0.42391787
   0.33333300  0.16666600  0.13894900
   0.50000000  0.41666600  0.13894900
   0.33333300  0.33333400  0.27764900
   0.50000000  0.08333300  0.27764900
   0.66666700  0.00000000  0.00000000
   0.83333300  0.25000000  0.00000000
   0.66666700  0.00003964  0.42391787
   0.83333300  0.25003964  0.42391787
   0.66666700  0.16666600  0.13894900
   0.83333300  0.41666600  0.13894900
   0.66666700  0.33333300  0.27764900
   0.83333300  0.08333300  0.27764900
   0.00000000  0.50000000  0.00000000
   0.16666700  0.75000000  0.00000000
   0.00000000  0.50003964  0.42391787
   0.16666700  0.75003964  0.42391787
   0.00000000  0.66666600  0.13894900
   0.16666700  0.91666600  0.13894900
   0.00000000  0.83333300  0.27764900
   0.16666700  0.58333300  0.27764900
   0.33333300  0.50000000  0.00000000
   0.50000000  0.75000000  0.00000000
   0.33333300  0.50003964  0.42391787
   0.50000000  0.75003964  0.42391787
   0.33333300  0.66666600  0.13894900
   0.50000000  0.91666600  0.13894900
   0.33333300  0.83333300  0.27764900
   0.50000000  0.58333300  0.27764900
   0.66666700  0.50000000  0.00000000
   0.83333300  0.75000000  0.00000000
   0.66666700  0.50003964  0.42391787
   0.83333300  0.75003964  0.42391787
   0.66666700  0.66666600  0.13894900
   0.83333300  0.91666600  0.13894900
   0.66666700  0.83333300  0.27764900
   0.83333300  0.58333300  0.27764900
Direct configuration=     4
   0.00000000  0.00000000  0.31213000
   0.16666700  0.25000000  0.31213000
  -0.00000000  0.33338958  0.44444664
   0.16666700  0.08338958  0.44444664
   0.00000000  0.16666600  0.03482200
   0.16666700  0.41666600  0.03482200
   0.00000000  0.33333300  0.17351800
   0.16666700  0.08333300  0.17351800
   0.33333300  0.00000000  0.31213000
   0.50000000  0.25000000  0.31213000
   0.33333300  0.33339058  0.44444664
   0.50000000  0.08338958  0.44444664
   0.33333300  0.16666600  0.03482200
   0.50000000  0.41666600  0.03482200
   0.33333300  0.33333400  0.17351800
   0.50000000  0.08333300  0.17351800
   0.66666700  0.00000000  0.31213000
   0.83333300  0.25000000  0.31213000
   0.66666700  0.33338958  0.44444664
   0.83333300  0.08338958  0.44444664
   0.66666700  0.16666600  0.03482200
   0.83333300  0.41666600  0.03482200
   0.66666700  0.33333300  0.17351800
   0.83333300  0.08333300  0.17351800
   0.00000000  0.50000000  0.31213000
   0.16666700  0.75000000  0.31213000
   0.00000000  0.83338958  0.44444664
   0.16666700  0.58338958  0.44444664
   0.00000000  0.66666600  0.03482200
   0.16666700  0.91666600  0.03482200
   0.00000000  0.83333300  0.17351800
   0.16666700  0.58333300  0.17351800
   0.33333300  0.50000000  0.31213000
   0.50000000  0.75000000  0.31213000
   0.33333300  0.83338958  0.44444664
   0.50000000  0.58338958  0.44444664
   0.33333300  0.66666600  0.03482200
   0.50000000  0.91666600  0.03482200
   0.33333300  0.83333300  0.17351800
   0.50000000  0.58333300  0.17351800
   0.66666700  0.50000000  0.31213000
   0.83333300  0.75000000  0.31213000
   0.66666700  0.83338958  0.44444664
   0.83333300  0.58338958  0.44444664
   0.66666700  0.66666600  0.03482200
   0.83333300  0.91666600  0.03482200
   0.66666700  0.83333300  0.17351800
   0.83333300  0.58333300  0.17351800
   0.00000000  0.00000000  0.00000000
   0.16666700  0.25000000  0.00000000
  -0.00000000 -0.00005007  0.42341422
   0.16666700  0.24994993  0.42341422
   0.00000000  0.16666600  0.13894900
   0.16666700  0.41666600  0.13894900
   0.00000000  0.33333300  0.27764900
   0.16666700  0.08333300  0.27764900
   0.33333300  0.00000000  0.00000000
   0.50000000  0.25000000  0.00000000
   0.33333300 -0.00005007  0.42341422
   0.50000000  0.24994993  0.42341422
   0.33333300  0.16666600  0.13894900
   0.50000000  0.41666600  0.13894900
   0.33333300  0.33333400  0.27764900
   0.50000000  0.08333300  0.27764900
   0.66666700  0.00000000  0.00000000
   0.83333300  0.25000000  0.00000000
   0.66666700 -0.00005007  0.42341422
   0.83333300  0.24994993  0.42341422
   0.66666700  0.16666600  0.13894900
   0.83333300  0.41666600  0.13894900
   0.66666700  0.33333300  0.27764900
   0.83333300  0.08333300  0.27764900
   0.00000000  0.50000000  0.00000000
   0.16666700  0.75000000  0.00000000
   0.00000000  0.49994993  0.42341422
   0.16666700  0.74994993  0.42341422
   0.00000000  0.66666600  0.13894900
   0.16666700  0.91666600  0.13894900
   0.00000000  0.83333300  0.27764900
   0.16666700  0.58333300  0.27764900
   0.33333300  0.50000000  0.00000000
   0.50000000  0.75000000  0.00000000
   0.33333300  0.49994993  0.42341422
   0.50000000  0.74994993  0.42341422
   0.33333300  0.66666600  0.13894900
   0.50000000  0.91666600  0.13894900
   0.33333300  0.83333300  0.27764900
   0.50000000  0.58333300  0.27764900
   0.66666700  0.50000000  0.00000000
   0.83333300  0.75000000  0.00000000
   0.66666700  0.49994993  0.42341422
   0.83333300  0.74994993  0.42341422
   0.66666700  0.66666600  0.13894900
   0.83333300  0.91666600  0.13894900
   0.66666700  0.83333300  0.27764900
   0.83333300  0.58333300  0.27764900
Direct configuration=     5
   0.00000000  0.00000000  0.31213000
   0.16666700  0.25000000  0.31213000
  -0.00000000  0.33364522  0.44226987
   0.16666700  0.08364522  0.44226987
   0.00000000  0.16666600  0.03482200
   0.16666700  0.41666600  0.03482200
   0.00000000  0.33333300  0.17351800
   0.16666700  0.08333300  0.17351800
   0.33333300  0.00000000  0.31213000
   0.50000000  0.25000000  0.31213000
   0.33333300  0.33364622  0.44226987
   0.50000000  0.08364522  0.44226987
   0.33333300  0.16666600  0.03482200
   0.50000000  0.41666600  0.03482200
   0.33333300  0.33333400  0.17351800
   0.50000000  0.08333300  0.17351800
   0.66666700  0.00000000  0.31213000
   0.83333300  0.25000000  0.31213000
   0.66666700  0.33364522  0.44226987
   0.83333300  0.08364522  0.44226987
   0.66666700  0.16666600  0.03482200
   0.83333300  0.41666600  0.03482200
   0.66666700  0.33333300  0.17351800
   0.83333300  0.08333300  0.17351800
   0.00000000  0.50000000  0.31213000
   0.16666700  0.75000000  0.31213000
  -0.00000000  0.83364522  0.44226987
   0.16666700  0.58364522  0.44226987
   0.00000000  0.66666600  0.03482200
   0.16666700  0.91666600  0.03482200
   0.00000000  0.83333300  0.17351800
   0.16666700  0.58333300  0.17351800
   0.33333300  0.50000000  0.31213000
   0.50000000  0.75000000  0.31213000
   0.33333300  0.83364522  0.44226987
   0.50000000  0.58364522  0.44226987
   0.33333300  0.66666600  0.03482200
   0.50000000  0.91666600  0.03482200
   0.33333300  0.83333300  0.17351800
   0.50000000  0.58333300  0.17351800
   0.66666700  0.50000000  0.31213000
   0.83333300  0.75000000  0.31213000
   0.66666700  0.83364522  0.44226987
   0.83333300  0.58364522  0.44226987
   0.66666700  0.66666600  0.03482200
   0.83333300  0.91666600  0.03482200
   0.66666700  0.83333300  0.17351800
   0.83333300  0.58333300  0.17351800
   0.00000000  0.00000000  0.00000000
   0.16666700  0.25000000  0.00000000
  -0.00000000 -0.00031922  0.42190327
   0.16666700  0.24968078  0.42190327
   0.00000000  0.16666600  0.13894900
   0.16666700  0.41666600  0.13894900
   0.00000000  0.33333300  0.27764900
   0.16666700  0.08333300  0.27764900
   0.33333300  0.00000000  0.00000000
   0.50000000  0.25000000  0.00000000
   0.33333300 -0.00031922  0.42190327
   0.50000000  0.24968078  0.42190327
   0.33333300  0.16666600  0.13894900
   0.50000000  0.41666600  0.13894900
   0.33333300  0.33333400  0.27764900
   0.50000000  0.08333300  0.27764900
   0.66666700  0.00000000  0.00000000
   0.83333300  0.25000000  0.00000000
   0.66666700 -0.00031922  0.42190327
   0.83333300  0.24968078  0.42190327
   0.66666700  0.16666600  0.13894900
   0.83333300  0.41666600  0.13894900
   0.66666700  0.33333300  0.27764900
   0.83333300  0.08333300  0.27764900
   0.00000000  0.50000000  0.00000000
   0.16666700  0.75000000  0.00000000
   0.00000000  0.49968078  0.42190327
   0.16666700  0.74968078  0.42190327
   0.00000000  0.66666600  0.13894900
   0.16666700  0.91666600  0.13894900
   0.00000000  0.83333300  0.27764900
   0.16666700  0.58333300  0.27764900
   0.33333300  0.50000000  0.00000000
   0.50000000  0.75000000  0.00000000
   0.33333300  0.49968078  0.42190327
   0.50000000  0.74968078  0.42190327
   0.33333300  0.66666600  0.13894900
   0.50000000  0.91666600  0.13894900
   0.33333300  0.83333300  0.27764900
   0.50000000  0.58333300  0.27764900
   0.66666700  0.50000000  0.00000000
   0.83333300  0.75000000  0.00000000
   0.66666700  0.49968078  0.42190327
   0.83333300  0.74968078  0.42190327
   0.66666700  0.66666600  0.13894900
   0.83333300  0.91666600  0.13894900
   0.66666700  0.83333300  0.27764900
   0.83333300  0.58333300  0.27764900
Direct configuration=     6
   0.00000000  0.00000000  0.31213000
   0.16666700  0.25000000  0.31213000
  -0.00000000  0.33370661  0.44174716
   0.16666700  0.08370661  0.44174716
   0.00000000  0.16666600  0.03482200
   0.16666700  0.41666600  0.03482200
   0.00000000  0.33333300  0.17351800
   0.16666700  0.08333300  0.17351800
   0.33333300  0.00000000  0.31213000
   0.50000000  0.25000000  0.31213000
   0.33333300  0.33370761  0.44174716
   0.50000000  0.08370661  0.44174716
   0.33333300  0.16666600  0.03482200
   0.50000000  0.41666600  0.03482200
   0.33333300  0.33333400  0.17351800
   0.50000000  0.08333300  0.17351800
   0.66666700  0.00000000  0.31213000
   0.83333300  0.25000000  0.31213000
   0.66666700  0.33370661  0.44174716
   0.83333300  0.08370661  0.44174716
   0.66666700  0.16666600  0.03482200
   0.83333300  0.41666600  0.03482200
   0.66666700  0.33333300  0.17351800
   0.83333300  0.08333300  0.17351800
   0.00000000  0.50000000  0.31213000
   0.16666700  0.75000000  0.31213000
  -0.00000000  0.83370661  0.44174716
   0.16666700  0.58370661  0.44174716
   0.00000000  0.66666600  0.03482200
   0.16666700  0.91666600  0.03482200
   0.00000000  0.83333300  0.17351800
   0.16666700  0.58333300  0.17351800
   0.33333300  0.50000000  0.31213000
   0.50000000  0.75000000  0.31213000
   0.33333300  0.83370661  0.44174716
   0.50000000  0.58370661  0.44174716
   0.33333300  0.66666600  0.03482200
   0.50000000  0.91666600  0.03482200
   0.33333300  0.83333300  0.17351800
   0.50000000  0.58333300  0.17351800
   0.66666700  0.50000000  0.31213000
   0.83333300  0.75000000  0.31213000
   0.66666700  0.83370661  0.44174716
   0.83333300  0.58370661  0.44174716
   0.66666700  0.66666600  0.03482200
   0.83333300  0.91666600  0.03482200
   0.66666700  0.83333300  0.17351800
   0.83333300  0.58333300  0.17351800
   0.00000000  0.00000000  0.00000000
   0.16666700  0.25000000  0.00000000
  -0.00000000 -0.00038385  0.42154045
   0.16666700  0.24961615  0.42154045
   0.00000000  0.16666600  0.13894900
   0.16666700  0.41666600  0.13894900
   0.00000000  0.33333300  0.27764900
   0.16666700  0.08333300  0.27764900
   0.33333300  0.00000000  0.00000000
   0.50000000  0.25000000  0.00000000
   0.33333300 -0.00038385  0.42154045
   0.50000000  0.24961615  0.42154045
   0.33333300  0.16666600  0.13894900
   0.50000000  0.41666600  0.13894900
   0.33333300  0.33333400  0.27764900
   0.50000000  0.08333300  0.27764900
   0.66666700  0.00000000  0.00000000
   0.83333300  0.25000000  0.00000000
   0.66666700 -0.00038385  0.42154045
   0.83333300  0.24961615  0.42154045
   0.66666700  0.16666600  0.13894900
   0.83333300  0.41666600  0.13894900
   0.66666700  0.33333300  0.27764900
   0.83333300  0.08333300  0.27764900
   0.00000000  0.50000000  0.00000000
   0.16666700  0.75000000  0.00000000
   0.00000000  0.49961615  0.42154045
   0.16666700  0.74961615  0.42154045
   0.00000000  0.66666600  0.13894900
   0.16666700  0.91666600  0.13894900
   0.00000000  0.83333300  0.27764900
   0.16666700  0.58333300  0.27764900
   0.33333300  0.50000000  0.00000000
   0.50000000  0.75000000  0.00000000
   0.33333300  0.49961615  0.42154045
   0.50000000  0.74961615  0.42154045
   0.33333300  0.66666600  0.13894900
   0.50000000  0.91666600  0.13894900
   0.33333300  0.83333300  0.27764900
   0.50000000  0.58333300  0.27764900
   0.66666700  0.50000000  0.00000000
   0.83333300  0.75000000  0.00000000
   0.66666700  0.49961615  0.42154045
   0.83333300  0.74961615  0.42154045
   0.66666700  0.66666600  0.13894900
   0.83333300  0.91666600  0.13894900
   0.66666700  0.83333300  0.27764900
   0.83333300  0.58333300  0.27764900
Direct configuration=     7
   0.00000000  0.00000000  0.31213000
   0.16666700  0.25000000  0.31213000
  -0.00000000  0.33276902  0.44114545
   0.16666700  0.08276902  0.44114545
   0.00000000  0.16666600  0.03482200
   0.16666700  0.41666600  0.03482200
   0.00000000  0.33333300  0.17351800
   0.16666700  0.08333300  0.17351800
   0.33333300  0.00000000  0.31213000
   0.50000000  0.25000000  0.31213000
   0.33333300  0.33277002  0.44114545
   0.50000000  0.08276902  0.44114545
   0.33333300  0.16666600  0.03482200
   0.50000000  0.41666600  0.03482200
   0.33333300  0.33333400  0.17351800
   0.50000000  0.08333300  0.17351800
   0.66666700  0.00000000  0.31213000
   0.83333300  0.25000000  0.31213000
   0.66666700  0.33276902  0.44114545
   0.83333300  0.08276902  0.44114545
   0.66666700  0.16666600  0.03482200
   0.83333300  0.41666600  0.03482200
   0.66666700  0.33333300  0.17351800
   0.83333300  0.08333300  0.17351800
   0.00000000  0.50000000  0.31213000
   0.16666700  0.75000000  0.31213000
  -0.00000000  0.83276902  0.44114545
   0.16666700  0.58276902  0.44114545
   0.00000000  0.66666600  0.03482200
   0.16666700  0.91666600  0.03482200
   0.00000000  0.83333300  0.17351800
   0.16666700  0.58333300  0.17351800
   0.33333300  0.50000000  0.31213000
   0.50000000  0.75000000  0.31213000
   0.33333300  0.83276902  0.44114545
   0.50000000  0.58276902  0.44114545
   0.33333300  0.66666600  0.03482200
   0.50000000  0.91666600  0.03482200
   0.33333300  0.83333300  0.17351800
   0.50000000  0.58333300  0.17351800
   0.66666700  0.50000000  0.31213000
   0.83333300  0.75000000  0.31213000
   0.66666700  0.83276902  0.44114545
   0.83333300  0.58276902  0.44114545
   0.66666700  0.66666600  0.03482200
   0.83333300  0.91666600  0.03482200
   0.66666700  0.83333300  0.17351800
   0.83333300  0.58333300  0.17351800
   0.00000000  0.00000000  0.00000000
   0.16666700  0.25000000  0.00000000
  -0.00000000  0.00060609  0.42083202
   0.16666700  0.25060609  0.42083202
   0.00000000  0.16666600  0.13894900
   0.16666700  0.41666600  0.13894900
   0.00000000  0.33333300  0.27764900
   0.16666700  0.08333300  0.27764900
   0.33333300  0.00000000  0.00000000
   0.50000000  0.25000000  0.00000000
   0.33333300  0.00060609  0.42083202
   0.50000000  0.25060609  0.42083202
   0.33333300  0.16666600  0.13894900
   0.50000000  0.41666600  0.13894900
   0.33333300  0.33333400  0.27764900
   0.50000000  0.08333300  0.27764900
   0.66666700  0.00000000  0.00000000
   0.83333300  0.25000000  0.00000000
   0.66666700  0.00060609  0.42083202
   0.83333300  0.25060609  0.42083202
   0.66666700  0.16666600  0.13894900
   0.83333300  0.41666600  0.13894900
   0.66666700  0.33333300  0.27764900
   0.83333300  0.08333300  0.27764900
   0.00000000  0.50000000  0.00000000
   0.16666700  0.75000000  0.00000000
   0.00000000  0.50060609  0.42083202
   0.16666700  0.75060609  0.42083202
   0.00000000  0.66666600  0.13894900
   0.16666700  0.91666600  0.13894900
   0.00000000  0.83333300  0.27764900
   0.16666700  0.58333300  0.27764900
   0.33333300  0.50000000  0.00000000
   0.50000000  0.75000000  0.00000000
   0.33333300  0.50060609  0.42083202
   0.50000000  0.75060609  0.42083202
   0.33333300  0.66666600  0.13894900
   0.50000000  0.91666600  0.13894900
   0.33333300  0.83333300  0.27764900
   0.50000000  0.58333300  0.27764900
   0.66666700  0.50000000  0.00000000
   0.83333300  0.75000000  0.00000000
   0.66666700  0.50060609  0.42083202
   0.83333300  0.75060609  0.42083202
   0.66666700  0.66666600  0.13894900
   0.83333300  0.91666600  0.13894900
   0.66666700  0.83333300  0.27764900
   0.83333300  0.58333300  0.27764900
Direct configuration=     8
   0.00000000  0.00000000  0.31213000
   0.16666700  0.25000000  0.31213000
  -0.00000000  0.33333098  0.44150609
   0.16666700  0.08333098  0.44150609
   0.00000000  0.16666600  0.03482200
   0.16666700  0.41666600  0.03482200
   0.00000000  0.33333300  0.17351800
   0.16666700  0.08333300  0.17351800
   0.33333300  0.00000000  0.31213000
   0.50000000  0.25000000  0.31213000
   0.33333300  0.33333198  0.44150609
   0.50000000  0.08333098  0.44150609
   0.33333300  0.16666600  0.03482200
   0.50000000  0.41666600  0.03482200
   0.33333300  0.33333400  0.17351800
   0.50000000  0.08333300  0.17351800
   0.66666700  0.00000000  0.31213000
   0.83333300  0.25000000  0.31213000
   0.66666700  0.33333098  0.44150609
   0.83333300  0.08333098  0.44150609
   0.66666700  0.16666600  0.03482200
   0.83333300  0.41666600  0.03482200
   0.66666700  0.33333300  0.17351800
   0.83333300  0.08333300  0.17351800
   0.00000000  0.50000000  0.31213000
   0.16666700  0.75000000  0.31213000
  -0.00000000  0.83333098  0.44150609
   0.16666700  0.58333098  0.44150609
   0.00000000  0.66666600  0.03482200
   0.16666700  0.91666600  0.03482200
   0.00000000  0.83333300  0.17351800
   0.16666700  0.58333300  0.17351800
   0.33333300  0.50000000  0.31213000
   0.50000000  0.75000000  0.31213000
   0.33333300  0.83333098  0.44150609
   0.50000000  0.58333098  0.44150609
   0.33333300  0.66666600  0.03482200
   0.50000000  0.91666600  0.03482200
   0.33333300  0.83333300  0.17351800
   0.50000000  0.58333300  0.17351800
   0.66666700  0.50000000  0.31213000
   0.83333300  0.75000000  0.31213000
   0.66666700  0.83333098  0.44150609
   0.83333300  0.58333098  0.44150609
   0.66666700  0.66666600  0.03482200
   0.83333300  0.91666600  0.03482200
   0.66666700  0.83333300  0.17351800
   0.83333300  0.58333300  0.17351800
   0.00000000  0.00000000  0.00000000
   0.16666700  0.25000000  0.00000000
  -0.00000000  0.00001276  0.42125663
   0.16666700  0.25001276  0.42125663
   0.00000000  0.16666600  0.13894900
   0.16666700  0.41666600  0.13894900
   0.00000000  0.33333300  0.27764900
   0.16666700  0.08333300  0.27764900
   0.33333300  0.00000000  0.00000000
   0.50000000  0.25000000  0.00000000
   0.33333300  0.00001276  0.42125663
   0.50000000  0.25001276  0.42125663
   0.33333300  0.16666600  0.13894900
   0.50000000  0.41666600  0.13894900
   0.33333300  0.33333400  0.27764900
   0.50000000  0.08333300  0.27764900
   0.66666700  0.00000000  0.00000000
   0.83333300  0.25000000  0.00000000
   0.66666700  0.00001276  0.42125663
   0.83333300  0.25001276  0.42125663
   0.66666700  0.16666600  0.13894900
   0.83333300  0.41666600  0.13894900
   0.66666700  0.33333300  0.27764900
   0.83333300  0.08333300  0.27764900
   0.00000000  0.50000000  0.00000000
   0.16666700  0.75000000  0.00000000
   0.00000000  0.50001276  0.42125663
   0.16666700  0.75001276  0.42125663
   0.00000000  0.66666600  0.13894900
   0.16666700  0.91666600  0.13894900
   0.00000000  0.83333300  0.27764900
   0.16666700  0.58333300  0.27764900
   0.33333300  0.50000000  0.00000000
   0.50000000  0.75000000  0.00000000
   0.33333300  0.50001276  0.42125663
   0.50000000  0.75001276  0.42125663
   0.33333300  0.66666600  0.13894900
   0.50000000  0.91666600  0.13894900
   0.33333300  0.83333300  0.27764900
   0.50000000  0.58333300  0.27764900
   0.66666700  0.50000000  0.00000000
   0.83333300  0.75000000  0.00000000
   0.66666700  0.50001276  0.42125663
   0.83333300  0.75001276  0.42125663
   0.66666700  0.66666600  0.13894900
   0.83333300  0.91666600  0.13894900
   0.66666700  0.83333300  0.27764900
   0.83333300  0.58333300  0.27764900
Direct configuration=     9
   0.00000000  0.00000000  0.31213000
   0.16666700  0.25000000  0.31213000
  -0.00000000  0.33335026  0.44158548
   0.16666700  0.08335026  0.44158548
   0.00000000  0.16666600  0.03482200
   0.16666700  0.41666600  0.03482200
   0.00000000  0.33333300  0.17351800
   0.16666700  0.08333300  0.17351800
   0.33333300  0.00000000  0.31213000