  98  98   0   0
  0.1851224E+02  0.9284262E-09  0.1072054E-08  0.1822724E-08  0.5000000E-15
  1.000000000000000E-004
  CAR 
 ni3al                                   
     10.72701930    -29.69306096  301      2.97951916      1.00000000
    -29.693  0.0000E+00  0.0000E+00
    -29.558  0.0000E+00  0.0000E+00
    -29.424  0.0000E+00  0.0000E+00
    -29.289  0.0000E+00  0.0000E+00
    -29.154  0.0000E+00  0.0000E+00
    -29.019  0.0000E+00  0.0000E+00
    -28.885  0.0000E+00  0.0000E+00
    -28.750  0.0000E+00  0.0000E+00
    -28.615  0.0000E+00  0.0000E+00
    -28.480  0.0000E+00  0.0000E+00
    -28.346  0.3150E-10  0.4244E-11
    -28.211  0.3768E-05  0.5077E-06
    -28.076  0.1351E-01  0.1821E-02
    -27.942  0.1659E+01  0.2253E+00
    -27.807  0.9547E+01  0.1512E+01
    -27.672  0.3555E+01  0.1991E+01
    -27.537  0.6948E-01  0.2000E+01
    -27.403  0.4956E-04  0.2000E+01
    -27.268  0.1086E-08  0.2000E+01
    -27.133  0.0000E+00  0.2000E+01
    -26.998  0.0000E+00  0.2000E+01
    -26.864  0.0000E+00  0.2000E+01
    -26.729  0.0000E+00  0.2000E+01
    -26.594  0.0000E+00  0.2000E+01
    -26.459  0.0000E+00  0.2000E+01
    -26.325  0.0000E+00  0.2000E+01
    -26.190  0.0000E+00  0.2000E+01
    -26.055  0.0000E+00  0.2000E+01
    -25.921  0.0000E+00  0.2000E+01
    -25.786  0.0000E+00  0.2000E+01
    -25.651  0.0000E+00  0.2000E+01
    -25.516  0.0000E+00  0.2000E+01
    -25.382  0.0000E+00  0.2000E+01
    -25.247  0.0000E+00  0.2000E+01
    -25.112  0.0000E+00  0.2000E+01
    -24.977  0.0000E+00  0.2000E+01
    -24.843  0.0000E+00  0.2000E+01
    -24.708  0.0000E+00  0.2000E+01
    -24.573  0.0000E+00  0.2000E+01
    -24.438  0.0000E+00  0.2000E+01
    -24.304  0.0000E+00  0.2000E+01
    -24.169  0.0000E+00  0.2000E+01
    -24.034  0.0000E+00  0.2000E+01
    -23.900  0.0000E+00  0.2000E+01
    -23.765  0.0000E+00  0.2000E+01
    -23.630  0.0000E+00  0.2000E+01
    -23.495  0.0000E+00  0.2000E+01
    -23.361  0.0000E+00  0.2000E+01
    -23.226  0.0000E+00  0.2000E+01
    -23.091  0.0000E+00  0.2000E+01
    -22.956  0.0000E+00  0.2000E+01
    -22.822  0.0000E+00  0.2000E+01
    -22.687  0.0000E+00  0.2000E+01
    -22.552  0.4120E-14  0.2000E+01
    -22.417  0.4639E-08  0.2000E+01
    -22.283  0.1396E-03  0.2000E+01
    -22.148  0.1308E+00  0.2018E+01
    -22.013  0.4619E+01  0.2640E+01
    -21.879  0.8977E+01  0.3849E+01
    -21.744  0.1111E+01  0.3999E+01
    -21.609  0.6148E-02  0.4000E+01
    -21.474  0.1138E-05  0.4000E+01
    -21.340  0.6259E-11  0.4000E+01
    -21.205  0.0000E+00  0.4000E+01
    -21.070  0.0000E+00  0.4000E+01
    -20.935  0.0000E+00  0.4000E+01
    -20.801  0.0000E+00  0.4000E+01
    -20.666  0.0000E+00  0.4000E+01
    -20.531  0.0000E+00  0.4000E+01
    -20.396  0.0000E+00  0.4000E+01
    -20.262  0.0000E+00  0.4000E+01
    -20.127  0.0000E+00  0.4000E+01
    -19.992  0.0000E+00  0.4000E+01
    -19.858  0.0000E+00  0.4000E+01
    -19.723  0.0000E+00  0.4000E+01
    -19.588  0.0000E+00  0.4000E+01
    -19.453  0.0000E+00  0.4000E+01
    -19.319  0.0000E+00  0.4000E+01
    -19.184  0.0000E+00  0.4000E+01
    -19.049  0.0000E+00  0.4000E+01
    -18.914  0.0000E+00  0.4000E+01
    -18.780  0.0000E+00  0.4000E+01
    -18.645  0.0000E+00  0.4000E+01
    -18.510  0.0000E+00  0.4000E+01
    -18.375  0.0000E+00  0.4000E+01
    -18.241  0.0000E+00  0.4000E+01
    -18.106  0.0000E+00  0.4000E+01
    -17.971  0.0000E+00  0.4000E+01
    -17.837  0.0000E+00  0.4000E+01
    -17.702  0.0000E+00  0.4000E+01
    -17.567  0.0000E+00  0.4000E+01
    -17.432  0.0000E+00  0.4000E+01
    -17.298  0.0000E+00  0.4000E+01
    -17.163  0.0000E+00  0.4000E+01
    -17.028  0.0000E+00  0.4000E+01
    -16.893  0.0000E+00  0.4000E+01
    -16.759  0.0000E+00  0.4000E+01
    -16.624  0.0000E+00  0.4000E+01
    -16.489  0.0000E+00  0.4000E+01
    -16.354  0.0000E+00  0.4000E+01
    -16.220  0.0000E+00  0.4000E+01
    -16.085  0.0000E+00  0.4000E+01
    -15.950  0.0000E+00  0.4000E+01
    -15.816  0.0000E+00  0.4000E+01
    -15.681  0.0000E+00  0.4000E+01
    -15.546  0.0000E+00  0.4000E+01
    -15.411  0.0000E+00  0.4000E+01
    -15.277  0.0000E+00  0.4000E+01
    -15.142  0.0000E+00  0.4000E+01
    -15.007  0.0000E+00  0.4000E+01
    -14.872  0.0000E+00  0.4000E+01
    -14.738  0.0000E+00  0.4000E+01
    -14.603  0.0000E+00  0.4000E+01
    -14.468  0.0000E+00  0.4000E+01
    -14.333  0.0000E+00  0.4000E+01
    -14.199  0.0000E+00  0.4000E+01
    -14.064  0.0000E+00  0.4000E+01
    -13.929  0.0000E+00  0.4000E+01
    -13.794  0.0000E+00  0.4000E+01
    -13.660  0.0000E+00  0.4000E+01
    -13.525  0.3804E-13  0.4000E+01
    -13.390  0.1331E-07  0.4000E+01
    -13.256  0.1376E-03  0.4000E+01
    -13.121  0.4905E-01  0.4007E+01
    -12.986  0.1107E+01  0.4156E+01
    -12.851  0.4491E+01  0.4761E+01
    -12.717  0.5071E+01  0.5444E+01
    -12.582  0.4101E+01  0.5997E+01
    -12.447  0.7478E+01  0.7004E+01
    -12.312  0.3860E+01  0.7524E+01
    -12.178  0.5483E+01  0.8263E+01
    -12.043  0.1054E+02  0.9684E+01
    -11.908  0.9784E+01  0.1100E+02
    -11.773  0.9890E+01  0.1233E+02
    -11.639  0.1353E+02  0.1416E+02
    -11.504  0.1408E+02  0.1605E+02
    -11.369  0.3193E+02  0.2036E+02
    -11.235  0.2672E+02  0.2396E+02
    -11.100  0.1646E+02  0.2617E+02
    -10.965  0.1447E+02  0.2812E+02
    -10.830  0.1837E+02  0.3060E+02
    -10.696  0.1825E+02  0.3306E+02
    -10.561  0.1546E+02  0.3514E+02
    -10.426  0.1660E+02  0.3737E+02
    -10.291  0.1979E+02  0.4004E+02
    -10.157  0.1612E+02  0.4221E+02
    -10.022  0.2683E+02  0.4583E+02
     -9.887  0.2226E+02  0.4883E+02
     -9.752  0.2154E+02  0.5173E+02
     -9.618  0.2080E+02  0.5453E+02
     -9.483  0.2271E+02  0.5759E+02
     -9.348  0.3819E+02  0.6274E+02
     -9.214  0.3028E+02  0.6682E+02
     -9.079  0.2762E+02  0.7054E+02
     -8.944  0.2230E+02  0.7354E+02
     -8.809  0.2577E+02  0.7701E+02
     -8.675  0.2841E+02  0.8084E+02
     -8.540  0.2815E+02  0.8463E+02
     -8.405  0.1919E+02  0.8722E+02
     -8.270  0.1748E+02  0.8958E+02
     -8.136  0.1024E+02  0.9096E+02
     -8.001  0.1149E+02  0.9250E+02
     -7.866  0.8393E+01  0.9363E+02
     -7.731  0.1077E+02  0.9508E+02
     -7.597  0.1659E+02  0.9732E+02
     -7.462  0.2186E+02  0.1003E+03
     -7.327  0.2326E+02  0.1034E+03
     -7.193  0.1451E+02  0.1054E+03
     -7.058  0.4609E+01  0.1060E+03
     -6.923  0.1831E+00  0.1060E+03
     -6.788  0.3606E-03  0.1060E+03
     -6.654  0.2533E-07  0.1060E+03
     -6.519  0.1093E-08  0.1060E+03
     -6.384  0.3314E-04  0.1060E+03
     -6.249  0.3211E-01  0.1060E+03
     -6.115  0.1311E+01  0.1062E+03
     -5.980  0.5561E+01  0.1069E+03
     -5.845  0.1099E+02  0.1084E+03
     -5.710  0.8591E+01  0.1096E+03
     -5.576  0.1253E+02  0.1113E+03
     -5.441  0.2913E+02  0.1152E+03
     -5.306  0.3402E+02  0.1198E+03
     -5.172  0.3007E+02  0.1238E+03
     -5.037  0.4234E+02  0.1295E+03
     -4.902  0.4275E+02  0.1353E+03
     -4.767  0.3937E+02  0.1406E+03
     -4.633  0.4186E+02  0.1462E+03
     -4.498  0.4001E+02  0.1516E+03
     -4.363  0.2339E+02  0.1548E+03
     -4.228  0.1832E+02  0.1572E+03
     -4.094  0.1371E+02  0.1591E+03
     -3.959  0.2279E+02  0.1622E+03
     -3.824  0.1487E+02  0.1642E+03
     -3.689  0.1356E+02  0.1660E+03
     -3.555  0.1786E+02  0.1684E+03
     -3.420  0.2409E+02  0.1716E+03
     -3.285  0.2823E+02  0.1754E+03
     -3.151  0.2094E+02  0.1783E+03
     -3.016  0.2404E+02  0.1815E+03
     -2.881  0.4015E+02  0.1869E+03
     -2.746  0.3858E+02  0.1921E+03
     -2.612  0.3148E+02  0.1963E+03
     -2.477  0.3616E+02  0.2012E+03
     -2.342  0.3912E+02  0.2065E+03
     -2.207  0.3377E+02  0.2110E+03
     -2.073  0.3397E+02  0.2156E+03
     -1.938  0.3360E+02  0.2201E+03
     -1.803  0.3111E+02  0.2243E+03
     -1.668  0.3491E+02  0.2290E+03
     -1.534  0.3243E+02  0.2334E+03
     -1.399  0.3933E+02  0.2387E+03
     -1.264  0.4843E+02  0.2452E+03
     -1.130  0.5950E+02  0.2533E+03
     -0.995  0.5128E+02  0.2602E+03
     -0.860  0.5428E+02  0.2675E+03
     -0.725  0.4308E+02  0.2733E+03
     -0.591  0.4774E+02  0.2797E+03
     -0.456  0.4094E+02  0.2852E+03
     -0.321  0.4850E+02  0.2918E+03
     -0.186  0.4122E+02  0.2973E+03
     -0.052  0.4171E+02  0.3029E+03
      0.083  0.3890E+02  0.3082E+03
      0.218  0.3335E+02  0.3127E+03
      0.353  0.4499E+02  0.3187E+03
      0.487  0.6116E+02  0.3270E+03
      0.622  0.6730E+02  0.3360E+03
      0.757  0.5680E+02  0.3437E+03
      0.891  0.4209E+02  0.3494E+03
      1.026  0.3879E+02  0.3546E+03
      1.161  0.2631E+02  0.3581E+03
      1.296  0.2510E+02  0.3615E+03
      1.430  0.2046E+02  0.3643E+03
      1.565  0.1530E+02  0.3663E+03
      1.700  0.1589E+02  0.3685E+03
      1.835  0.1461E+02  0.3704E+03
      1.969  0.1049E+02  0.3719E+03
      2.104  0.5834E+01  0.3726E+03
      2.239  0.8541E+01  0.3738E+03
      2.374  0.7632E+01  0.3748E+03
      2.508  0.1119E+02  0.3763E+03
      2.643  0.2282E+02  0.3794E+03
      2.778  0.4221E+02  0.3851E+03
      2.912  0.7207E+02  0.3948E+03
      3.047  0.7915E+02  0.4055E+03
      3.182  0.8511E+02  0.4169E+03
      3.317  0.3526E+02  0.4217E+03
      3.451  0.2361E+01  0.4220E+03
      3.586  0.1192E-01  0.4220E+03
      3.721  0.2597E-05  0.4220E+03
      3.856  0.1886E-10  0.4220E+03
      3.990  0.0000E+00  0.4220E+03
      4.125  0.1222E-13  0.4220E+03
      4.260  0.6453E-08  0.4220E+03
      4.395  0.1045E-03  0.4220E+03
      4.529  0.5804E-01  0.4220E+03
      4.664  0.1459E+01  0.4222E+03
      4.799  0.4058E+01  0.4228E+03
      4.933  0.5666E+01  0.4235E+03
      5.068  0.6364E+01  0.4244E+03
      5.203  0.1046E+02  0.4258E+03
      5.338  0.8890E+01  0.4270E+03
      5.472  0.6461E+01  0.4278E+03
      5.607  0.5739E+01  0.4286E+03
      5.742  0.1053E+02  0.4300E+03
      5.877  0.1325E+02  0.4318E+03
      6.011  0.2487E+02  0.4352E+03
      6.146  0.2396E+02  0.4384E+03
      6.281  0.2454E+02  0.4417E+03
      6.416  0.3093E+02  0.4459E+03
      6.550  0.2475E+02  0.4492E+03
      6.685  0.1471E+02  0.4512E+03
      6.820  0.2004E+02  0.4539E+03
      6.954  0.3288E+02  0.4583E+03
      7.089  0.4093E+02  0.4638E+03
      7.224  0.3252E+02  0.4682E+03
      7.359  0.3503E+02  0.4729E+03
      7.493  0.3799E+02  0.4781E+03
      7.628  0.4905E+02  0.4847E+03
      7.763  0.3939E+02  0.4900E+03
      7.898  0.1933E+02  0.4926E+03
      8.032  0.1207E+02  0.4942E+03
      8.167  0.1850E+02  0.4967E+03
      8.302  0.1593E+02  0.4988E+03
      8.437  0.3471E+01  0.4993E+03
      8.571  0.7637E+00  0.4994E+03
      8.706  0.1648E+01  0.4996E+03
      8.841  0.1237E+01  0.4998E+03
      8.975  0.1279E+01  0.5000E+03
      9.110  0.1580E+00  0.5000E+03
      9.245  0.1158E-02  0.5000E+03
      9.380  0.3156E-06  0.5000E+03
      9.514  0.2627E-11  0.5000E+03
      9.649  0.0000E+00  0.5000E+03
      9.784  0.0000E+00  0.5000E+03
      9.919  0.0000E+00  0.5000E+03
     10.053  0.0000E+00  0.5000E+03
     10.188  0.0000E+00  0.5000E+03
     10.323  0.0000E+00  0.5000E+03
     10.458  0.0000E+00  0.5000E+03
     10.592  0.0000E+00  0.5000E+03
     10.727  0.0000E+00  0.5000E+03
