   98   98    1    1
  0.1851224E+02  0.9284262E-09  0.1072054E-08  0.1822724E-08  0.5000000E-15
  1.000000000000000E-004
  CAR 
 ni3al                                   
    400      7    250
 
  0.0000000E+00  0.0000000E+00  0.0000000E+00  0.8333333E-01
      1        -27.855785   1.000000
      2        -21.980182   1.000000
      3        -12.994358   1.000000
      4        -12.163372   1.000000
      5        -11.955807   1.000000
      6        -11.954768   1.000000
      7        -11.620848   1.000000
      8        -11.620407   1.000000
      9        -11.412221   1.000000
     10        -11.397254   1.000000
     11        -11.375813   1.000000
     12        -11.146309   1.000000
     13        -11.144808   1.000000
     14        -11.093131   1.000000
     15        -10.826347   1.000000
     16        -10.810452   1.000000
     17        -10.685261   1.000000
     18        -10.684772   1.000000
     19        -10.681911   1.000000
     20        -10.681340   1.000000
     21        -10.153571   1.000000
     22        -10.130066   1.000000
     23         -9.954674   1.000000
     24         -9.941266   1.000000
     25         -9.932469   1.000000
     26         -9.919563   1.000000
     27         -9.849680   1.000000
     28         -9.817649   1.000000
     29         -9.754491   1.000000
     30         -9.601352   1.000000
     31         -9.272407   1.000000
     32         -9.125799   1.000000
     33         -9.074226   1.000000
     34         -9.061046   1.000000
     35         -9.053446   1.000000
     36         -9.012967   1.000000
     37         -9.012562   1.000000
     38         -8.771189   1.000000
     39         -8.683054   1.000000
     40         -8.681414   1.000000
     41         -8.673161   1.000000
     42         -8.631683   1.000000
     43         -8.410737   1.000000
     44         -8.336459   1.000000
     45         -8.221961   1.000000
     46         -8.220097   1.000000
     47         -7.935796   1.000000
     48         -7.702685   1.000000
     49         -7.680096   1.000000
     50         -7.672282   1.000000
     51         -7.550970   1.000000
     52         -7.347529   1.000000
     53         -7.186332   1.000000
     54         -6.080017   1.000000
     55         -5.530482   1.000000
     56         -5.474240   1.000000
     57         -5.421091   1.000000
     58         -5.421001   1.000000
     59         -5.267386   1.000000
     60         -5.258078   1.000000
     61         -5.256986   1.000000
     62         -5.255732   1.000000
     63         -5.161880   1.000000
     64         -5.126824   1.000000
     65         -5.126191   1.000000
     66         -4.953798   1.000000
     67         -4.888741   1.000000
     68         -4.866757   1.000000
     69         -4.855900   1.000000
     70         -4.836022   1.000000
     71         -4.728314   1.000000
     72         -4.670134   1.000000
     73         -4.597455   1.000000
     74         -4.556885   1.000000
     75         -4.444860   1.000000
     76         -4.341956   1.000000
     77         -4.281989   1.000000
     78         -4.272259   1.000000
     79         -4.089523   1.000000
     80         -4.074723   1.000000
     81         -4.061916   1.000000
     82         -4.047243   1.000000
     83         -4.001413   1.000000
     84         -3.448870   1.000000
     85         -3.378502   1.000000
     86         -3.366207   1.000000
     87         -3.359856   1.000000
     88         -3.359207   1.000000
     89         -3.331587   1.000000
     90         -3.202666   1.000000
     91         -3.189950   1.000000
     92         -3.175814   1.000000
     93         -3.115965   1.000000
     94         -3.070552   1.000000
     95         -2.983546   1.000000
     96         -2.920548   1.000000
     97         -2.900990   1.000000
     98         -2.877123   1.000000
     99         -2.703527   1.000000
    100         -2.643880   1.000000
    101         -2.566786   1.000000
    102         -2.545207   1.000000
    103         -2.423882   1.000000
    104         -2.419654   1.000000
    105         -2.368029   1.000000
    106         -2.338908   1.000000
    107         -2.314929   1.000000
    108         -2.249316   1.000000
    109         -2.211338   1.000000
    110         -2.144616   1.000000
    111         -2.078542   1.000000
    112         -2.055780   1.000000
    113         -1.825805   1.000000
    114         -1.720104   1.000000
    115         -1.712015   1.000000
    116         -1.545510   1.000000
    117         -1.502191   1.000000
    118         -1.377625   1.000000
    119         -1.284754   1.000000
    120         -1.282813   1.000000
    121         -1.281167   1.000000
    122         -1.264464   1.000000
    123         -1.227590   1.000000
    124         -1.178784   1.000000
    125         -1.167621   1.000000
    126         -1.123721   1.000000
    127         -1.094388   1.000000
    128         -1.088719   1.000000
    129         -1.068046   1.000000
    130         -0.988698   1.000000
    131         -0.968052   1.000000
    132         -0.914217   1.000000
    133         -0.906848   1.000000
    134         -0.840198   1.000000
    135         -0.826204   1.000000
    136         -0.681635   1.000000
    137         -0.656537   1.000000
    138         -0.612855   1.000000
    139         -0.598815   1.000000
    140         -0.595529   1.000000
    141         -0.583837   1.000000
    142         -0.568893   1.000000
    143         -0.546761   1.000000
    144         -0.444315   1.000000
    145         -0.324809   1.000000
    146         -0.286610   1.000000
    147         -0.270780   1.000000
    148         -0.200758   1.000000
    149         -0.200500   1.000000
    150         -0.109259   1.000000
    151         -0.101762   1.000000
    152         -0.084511   1.000000
    153         -0.072465   1.000000
    154         -0.041966   1.000000
    155         -0.029166   1.000000
    156          0.285161   1.000000
    157          0.296844   1.000000
    158          0.304217   1.000000
    159          0.321291   1.000000
    160          0.399276   1.000000
    161          0.417160   1.000000
    162          0.438394   1.000000
    163          0.452023   1.000000
    164          0.542289   1.000000
    165          0.547892   1.000000
    166          0.556166   1.000000
    167          0.575746   1.000000
    168          0.706773   1.000000
    169          0.734690   1.000000
    170          0.945021   1.000000
    171          0.945707   1.000000
    172          0.952568   1.000000
    173          0.964320   1.000000
    174          0.979664   1.000000
    175          0.982124   1.000000
    176          1.024736   1.000000
    177          1.043847   1.000000
    178          1.060884   1.000000
    179          1.103444   1.000000
    180          1.281282   1.000000
    181          1.416107   1.000000
    182          1.416873   1.000000
    183          1.777485   1.000000
    184          1.788669   1.000000
    185          1.874405   1.000000
    186          1.888850   1.000000
    187          2.391128   1.000000
    188          2.487346   1.000000
    189          2.556512   1.000000
    190          2.559719   1.000000
    191          2.776460   0.997959
    192          2.795270   0.995415
    193          2.806091   0.992909
    194          2.828319   0.983754
    195          2.856265   0.959340
    196          2.892537   0.890672
    197          2.922998   0.787950
    198          2.938205   0.720480
    199          2.938518   0.718991
    200          3.000291   0.384473
    201          3.006431   0.351755
    202          3.013134   0.317255
    203          3.028850   0.242699
    204          3.050488   0.157775
    205          3.056198   0.139093
    206          3.068409   0.104361
    207          3.115389   0.027335
    208          3.116417   0.026432
    209          3.145432   0.009479
    210          3.162109   0.004908
    211          3.192682   0.001287
    212          4.683390   0.000000
    213          5.316844   0.000000
    214          5.413114   0.000000
    215          5.413228   0.000000
    216          5.415885   0.000000
    217          5.765763   0.000000
    218          5.988327   0.000000
    219          5.999212   0.000000
    220          6.001750   0.000000
    221          6.189357   0.000000
    222          6.349727   0.000000
    223          6.357346   0.000000
    224          6.367636   0.000000
    225          6.369607   0.000000
    226          6.390799   0.000000
    227          6.652803   0.000000
    228          6.656634   0.000000
    229          6.660768   0.000000
    230          6.702490   0.000000
    231          6.958686   0.000000
    232          6.966496   0.000000
    233          6.980456   0.000000
    234          6.983091   0.000000
    235          7.035763   0.000000
    236          7.124998   0.000000
    237          7.139125   0.000000
    238          7.184212   0.000000
    239          7.232919   0.000000
    240          7.374540   0.000000
    241          7.510809   0.000000
    242          7.516558   0.000000
    243          7.568035   0.000000
    244          7.591069   0.000000
    245          7.651328   0.000000
    246          7.737614   0.000000
    247          7.740782   0.000000
    248          7.751659   0.000000
    249          7.776871   0.000000
    250          7.810386   0.000000
 
  0.2500000E+00  0.0000000E+00  0.0000000E+00  0.1666667E+00
      1        -27.855785   1.000000
      2        -21.980173   1.000000
      3        -12.905900   1.000000
      4        -12.210043   1.000000
      5        -12.076343   1.000000
      6        -11.871377   1.000000
      7        -11.870332   1.000000
      8        -11.422695   1.000000
      9        -11.408857   1.000000
     10        -11.382867   1.000000
     11        -11.361685   1.000000
     12        -11.216294   1.000000
     13        -11.215368   1.000000
     14        -11.063797   1.000000
     15        -11.061782   1.000000
     16        -11.009318   1.000000
     17        -10.899405   1.000000
     18        -10.434708   1.000000
     19        -10.431519   1.000000
     20        -10.367810   1.000000
     21        -10.135604   1.000000
     22        -10.101401   1.000000
     23        -10.099814   1.000000
     24        -10.060423   1.000000
     25        -10.052021   1.000000
     26         -9.686430   1.000000
     27         -9.565826   1.000000
     28         -9.480763   1.000000
     29         -9.472209   1.000000
     30         -9.451737   1.000000
     31         -9.442123   1.000000
     32         -9.359892   1.000000
     33         -9.225595   1.000000
     34         -9.211360   1.000000
     35         -9.201930   1.000000
     36         -8.935049   1.000000
     37         -8.826999   1.000000
     38         -8.794546   1.000000
     39         -8.769475   1.000000
     40         -8.754353   1.000000
     41         -8.642352   1.000000
     42         -8.615215   1.000000
     43         -8.558484   1.000000
     44         -8.319229   1.000000
     45         -8.300459   1.000000
     46         -8.145301   1.000000
     47         -8.025352   1.000000
     48         -7.839291   1.000000
     49         -7.663703   1.000000
     50         -7.522240   1.000000
     51         -7.486481   1.000000
     52         -7.337307   1.000000
     53         -7.198985   1.000000
     54         -6.006826   1.000000
     55         -5.863144   1.000000
     56         -5.856969   1.000000
     57         -5.528279   1.000000
     58         -5.467219   1.000000
     59         -5.420663   1.000000
     60         -5.374508   1.000000
     61         -5.370764   1.000000
     62         -5.363042   1.000000
     63         -5.154716   1.000000
     64         -5.118284   1.000000
     65         -5.068852   1.000000
     66         -4.940115   1.000000
     67         -4.903154   1.000000
     68         -4.871612   1.000000
     69         -4.793536   1.000000
     70         -4.722961   1.000000
     71         -4.689906   1.000000
     72         -4.686006   1.000000
     73         -4.681471   1.000000
     74         -4.645845   1.000000
     75         -4.616391   1.000000
     76         -4.456784   1.000000
     77         -4.221946   1.000000
     78         -4.177897   1.000000
     79         -4.064396   1.000000
     80         -4.026145   1.000000
     81         -4.012616   1.000000
     82         -3.955185   1.000000
     83         -3.743809   1.000000
     84         -3.686157   1.000000
     85         -3.564238   1.000000
     86         -3.316902   1.000000
     87         -3.272548   1.000000
     88         -3.233795   1.000000
     89         -3.203985   1.000000
     90         -3.195136   1.000000
     91         -3.162357   1.000000
     92         -3.063768   1.000000
     93         -2.994687   1.000000
     94         -2.975552   1.000000
     95         -2.849387   1.000000
     96         -2.821928   1.000000
     97         -2.771761   1.000000
     98         -2.676004   1.000000
     99         -2.637819   1.000000
    100         -2.535528   1.000000
    101         -2.485604   1.000000
    102         -2.405365   1.000000
    103         -2.304743   1.000000
    104         -2.258813   1.000000
    105         -2.232658   1.000000
    106         -2.170967   1.000000
    107         -2.142597   1.000000
    108         -2.125533   1.000000
    109         -2.097764   1.000000
    110         -1.878500   1.000000
    111         -1.862777   1.000000
    112         -1.834979   1.000000
    113         -1.777650   1.000000
    114         -1.601798   1.000000
    115         -1.590454   1.000000
    116         -1.528227   1.000000
    117         -1.499072   1.000000
    118         -1.462270   1.000000
    119         -1.361746   1.000000
    120         -1.304471   1.000000
    121         -1.286505   1.000000
    122         -1.270176   1.000000
    123         -1.253353   1.000000
    124         -1.217276   1.000000
    125         -1.195688   1.000000
    126         -1.164710   1.000000
    127         -1.098702   1.000000
    128         -1.091019   1.000000
    129         -1.066209   1.000000
    130         -1.026368   1.000000
    131         -1.019701   1.000000
    132         -1.001324   1.000000
    133         -0.933226   1.000000
    134         -0.909550   1.000000
    135         -0.895466   1.000000
    136         -0.848555   1.000000
    137         -0.821039   1.000000
    138         -0.715199   1.000000
    139         -0.676251   1.000000
    140         -0.656008   1.000000
    141         -0.574581   1.000000
    142         -0.479627   1.000000
    143         -0.447319   1.000000
    144         -0.411169   1.000000
    145         -0.402091   1.000000
    146         -0.390925   1.000000
    147         -0.369284   1.000000
    148         -0.316397   1.000000
    149         -0.288297   1.000000
    150         -0.214371   1.000000
    151         -0.189263   1.000000
    152         -0.171137   1.000000
    153          0.026491   1.000000
    154          0.036962   1.000000
    155          0.102917   1.000000
    156          0.125513   1.000000
    157          0.222861   1.000000
    158          0.347312   1.000000
    159          0.406525   1.000000
    160          0.408504   1.000000
    161          0.425514   1.000000
    162          0.436078   1.000000
    163          0.454696   1.000000
    164          0.478876   1.000000
    165          0.491660   1.000000
    166          0.503322   1.000000
    167          0.636509   1.000000
    168          0.649380   1.000000
    169          0.662000   1.000000
    170          0.694977   1.000000
    171          0.709023   1.000000
    172          0.751047   1.000000
    173          0.760345   1.000000
    174          0.873486   1.000000
    175          0.896240   1.000000
    176          0.916162   1.000000
    177          0.950223   1.000000
    178          1.052763   1.000000
    179          1.183842   1.000000
    180          1.202929   1.000000
    181          1.222700   1.000000
    182          1.380536   1.000000
    183          1.537838   1.000000
    184          1.552911   1.000000
    185          1.657740   1.000000
    186          1.692730   1.000000
    187          2.206257   1.000000
    188          2.479919   1.000000
    189          2.548283   1.000000
    190          2.564065   1.000000
    191          2.610503   1.000000
    192          2.665897   0.999995
    193          2.834478   0.979876
    194          2.857050   0.958361
    195          2.887562   0.903280
    196          2.901414   0.865327
    197          2.932258   0.748051
    198          2.935110   0.735010
    199          2.950231   0.660635
    200          2.966327   0.573998
    201          2.984404   0.472463
    202          3.009383   0.336387
    203          3.057955   0.133660
    204          3.078768   0.080221
    205          3.115887   0.026894
    206          3.128021   0.017858
    207          3.131872   0.015597
    208          3.151867   0.007397
    209          3.164710   0.004410
    210          3.182383   0.002059
    211          3.218713   0.000359
    212          4.846950   0.000000
    213          4.888326   0.000000
    214          5.100044   0.000000
    215          5.738460   0.000000
    216          6.110112   0.000000
    217          6.149347   0.000000
    218          6.176867   0.000000
    219          6.184249   0.000000
    220          6.212214   0.000000
    221          6.220441   0.000000
    222          6.390651   0.000000
    223          6.431397   0.000000
    224          6.436051   0.000000
    225          6.518491   0.000000
    226          6.565024   0.000000
    227          6.624310   0.000000
    228          6.738387   0.000000
    229          6.753953   0.000000
    230          6.796344   0.000000
    231          7.221518   0.000000
    232          7.235208   0.000000
    233          7.264331   0.000000
    234          7.275641   0.000000
    235          7.278725   0.000000
    236          7.300471   0.000000
    237          7.313601   0.000000
    238          7.328327   0.000000
    239          7.340038   0.000000
    240          7.488423   0.000000
    241          7.496052   0.000000
    242          7.652366   0.000000
    243          7.683311   0.000000
    244          7.899862   0.000000
    245          7.986692   0.000000
    246          8.088897   0.000000
    247          8.125168   0.000000
    248          8.215782   0.000000
    249          8.265365   0.000000
    250          8.320576   0.000000
 
  0.5000000E+00  0.0000000E+00  0.0000000E+00  0.8333333E-01
      1        -27.855785   1.000000
      2        -21.980178   1.000000
      3        -12.646872   1.000000
      4        -12.637796   1.000000
      5        -11.836157   1.000000
      6        -11.801572   1.000000
      7        -11.625390   1.000000
      8        -11.624434   1.000000
      9        -11.617035   1.000000
     10        -11.615769   1.000000
     11        -11.411415   1.000000
     12        -11.393878   1.000000
     13        -11.369793   1.000000
     14        -10.849988   1.000000
     15        -10.836067   1.000000
     16        -10.805457   1.000000
     17        -10.803121   1.000000
     18        -10.784121   1.000000
     19        -10.734394   1.000000
     20        -10.102624   1.000000
     21        -10.101807   1.000000
     22         -9.886360   1.000000
     23         -9.839587   1.000000
     24         -9.815270   1.000000
     25         -9.808353   1.000000
     26         -9.754757   1.000000
     27         -9.753992   1.000000
     28         -9.492833   1.000000
     29         -9.489471   1.000000
     30         -9.410361   1.000000
     31         -9.400071   1.000000
     32         -9.345949   1.000000
     33         -9.269876   1.000000
     34         -9.266683   1.000000
     35         -9.220893   1.000000
     36         -9.037556   1.000000
     37         -9.015088   1.000000
     38         -8.715275   1.000000
     39         -8.673984   1.000000
     40         -8.666476   1.000000
     41         -8.643644   1.000000
     42         -8.544810   1.000000
     43         -8.475517   1.000000
     44         -8.452078   1.000000
     45         -8.363768   1.000000
     46         -8.327572   1.000000
     47         -8.317388   1.000000
     48         -7.738120   1.000000
     49         -7.530806   1.000000
     50         -7.486237   1.000000
     51         -7.395712   1.000000
     52         -7.372996   1.000000
     53         -7.273442   1.000000
     54         -6.085243   1.000000
     55         -6.075507   1.000000
     56         -5.805621   1.000000
     57         -5.792618   1.000000
     58         -5.535639   1.000000
     59         -5.525510   1.000000
     60         -5.315482   1.000000
     61         -5.288659   1.000000
     62         -5.281468   1.000000
     63         -5.153603   1.000000
     64         -5.124974   1.000000
     65         -5.121653   1.000000
     66         -5.119160   1.000000
     67         -5.119112   1.000000
     68         -4.969317   1.000000
     69         -4.836070   1.000000
     70         -4.801109   1.000000
     71         -4.793820   1.000000
     72         -4.725635   1.000000
     73         -4.601010   1.000000
     74         -4.594414   1.000000
     75         -4.590493   1.000000
     76         -4.431408   1.000000
     77         -4.430622   1.000000
     78         -4.375735   1.000000
     79         -4.262919   1.000000
     80         -4.239895   1.000000
     81         -3.985484   1.000000
     82         -3.946684   1.000000
     83         -3.476893   1.000000
     84         -3.376406   1.000000
     85         -3.365064   1.000000
     86         -3.357027   1.000000
     87         -3.340508   1.000000
     88         -3.217379   1.000000
     89         -2.930205   1.000000
     90         -2.907902   1.000000
     91         -2.821645   1.000000
     92         -2.812123   1.000000
     93         -2.708432   1.000000
     94         -2.626948   1.000000
     95         -2.568864   1.000000
     96         -2.566349   1.000000
     97         -2.556191   1.000000
     98         -2.540819   1.000000
     99         -2.526335   1.000000
    100         -2.521120   1.000000
    101         -2.333053   1.000000
    102         -2.322326   1.000000
    103         -2.308220   1.000000
    104         -2.283289   1.000000
    105         -2.248139   1.000000
    106         -2.197537   1.000000
    107         -2.154578   1.000000
    108         -2.121645   1.000000
    109         -1.830307   1.000000
    110         -1.827726   1.000000
    111         -1.821049   1.000000
    112         -1.812579   1.000000
    113         -1.779559   1.000000
    114         -1.736079   1.000000
    115         -1.641912   1.000000
    116         -1.633835   1.000000
    117         -1.549969   1.000000
    118         -1.548202   1.000000
    119         -1.536268   1.000000
    120         -1.471401   1.000000
    121         -1.383978   1.000000
    122         -1.362881   1.000000
    123         -1.303813   1.000000
    124         -1.297867   1.000000
    125         -1.182988   1.000000
    126         -1.180343   1.000000
    127         -1.128120   1.000000
    128         -1.014710   1.000000
    129         -0.970180   1.000000
    130         -0.969491   1.000000
    131         -0.918083   1.000000
    132         -0.916082   1.000000
    133         -0.915701   1.000000
    134         -0.900547   1.000000
    135         -0.858156   1.000000
    136         -0.843288   1.000000
    137         -0.768242   1.000000
    138         -0.746540   1.000000
    139         -0.711964   1.000000
    140         -0.656497   1.000000
    141         -0.439635   1.000000
    142         -0.431441   1.000000
    143         -0.383916   1.000000
    144         -0.361054   1.000000
    145         -0.338901   1.000000
    146         -0.306104   1.000000
    147         -0.289105   1.000000
    148         -0.277074   1.000000
    149         -0.269969   1.000000
    150         -0.242554   1.000000
    151         -0.141722   1.000000
    152         -0.119379   1.000000
    153         -0.108142   1.000000
    154         -0.103691   1.000000
    155         -0.100114   1.000000
    156         -0.092940   1.000000
    157          0.107755   1.000000
    158          0.133693   1.000000
    159          0.165154   1.000000
    160          0.180376   1.000000
    161          0.297749   1.000000
    162          0.313987   1.000000
    163          0.323402   1.000000
    164          0.331552   1.000000
    165          0.540141   1.000000
    166          0.556921   1.000000
    167          0.559912   1.000000
    168          0.565744   1.000000
    169          0.616916   1.000000
    170          0.621523   1.000000
    171          0.703392   1.000000
    172          0.709729   1.000000
    173          0.716027   1.000000
    174          0.746882   1.000000
    175          0.876066   1.000000
    176          0.885590   1.000000
    177          0.970125   1.000000
    178          0.984281   1.000000
    179          0.986625   1.000000
    180          1.018100   1.000000
    181          1.266708   1.000000
    182          1.273841   1.000000
    183          1.297249   1.000000
    184          1.308559   1.000000
    185          1.524231   1.000000
    186          1.528110   1.000000
    187          2.159112   1.000000
    188          2.221305   1.000000
    189          2.460644   1.000000
    190          2.499382   1.000000
    191          2.690193   0.999979
    192          2.709637   0.999932
    193          2.740540   0.999637
    194          2.809087   0.992030
    195          2.892905   0.889696
    196          2.900193   0.869035
    197          2.908128   0.843661
    198          2.937324   0.724657
    199          3.033062   0.224464
    200          3.049433   0.161397
    201          3.073024   0.093023
    202          3.090506   0.058255
    203          3.096219   0.049432
    204          3.102946   0.040447
    205          3.112238   0.030264
    206          3.113653   0.028918
    207          3.115698   0.027061
    208          3.117934   0.025145
    209          3.119415   0.023940
    210          3.212160   0.000501
    211          3.231173   0.000186
    212          4.667766   0.000000
    213          4.702459   0.000000
    214          5.597971   0.000000
    215          5.786221   0.000000
    216          5.879363   0.000000
    217          5.989337   0.000000
    218          6.039756   0.000000
    219          6.302779   0.000000
    220          6.305723   0.000000
    221          6.312698   0.000000
    222          6.353245   0.000000
    223          6.397465   0.000000
    224          6.978386   0.000000
    225          6.979617   0.000000
    226          6.981738   0.000000
    227          6.983167   0.000000
    228          6.998065   0.000000
    229          7.005207   0.000000
    230          7.020947   0.000000
    231          7.059502   0.000000
    232          7.206329   0.000000
    233          7.208530   0.000000
    234          7.465158   0.000000
    235          7.479992   0.000000
    236          7.497782   0.000000
    237          7.545486   0.000000
    238          7.584886   0.000000
    239          7.590726   0.000000
    240          7.596799   0.000000
    241          7.597385   0.000000
    242          7.713196   0.000000
    243          7.713846   0.000000
    244          7.754013   0.000000
    245          7.901360   0.000000
    246          8.094024   0.000000
    247          8.122029   0.000000
    248          8.173795   0.000000
    249          8.823822   0.000000
    250          8.889743   0.000000
 
  0.0000000E+00  0.3333333E+00  0.0000000E+00  0.1666667E+00
      1        -27.855785   1.000000
      2        -21.980179   1.000000
      3        -12.876468   1.000000
      4        -12.526137   1.000000
      5        -12.047945   1.000000
      6        -11.706245   1.000000
      7        -11.512791   1.000000
      8        -11.511941   1.000000
      9        -11.411408   1.000000
     10        -11.394855   1.000000
     11        -11.369623   1.000000
     12        -11.192900   1.000000
     13        -11.192643   1.000000
     14        -11.192312   1.000000
     15        -10.985348   1.000000
     16        -10.726522   1.000000
     17        -10.710960   1.000000
     18        -10.655531   1.000000
     19        -10.426589   1.000000
     20        -10.409459   1.000000
     21        -10.401576   1.000000
     22        -10.323643   1.000000
     23        -10.034421   1.000000
     24        -10.034090   1.000000
     25         -9.769987   1.000000
     26         -9.727723   1.000000
     27         -9.632555   1.000000
     28         -9.545850   1.000000
     29         -9.466237   1.000000
     30         -9.463019   1.000000
     31         -9.447462   1.000000
     32         -9.368709   1.000000
     33         -9.368089   1.000000
     34         -9.361729   1.000000
     35         -9.348984   1.000000
     36         -9.175502   1.000000
     37         -8.879690   1.000000
     38         -8.852489   1.000000
     39         -8.844106   1.000000
     40         -8.668783   1.000000
     41         -8.634907   1.000000
     42         -8.443886   1.000000
     43         -8.332222   1.000000
     44         -8.326174   1.000000
     45         -8.251734   1.000000
     46         -8.129415   1.000000
     47         -8.015738   1.000000
     48         -8.002871   1.000000