 vasp.6.3.2 27Jun22 (build Mar 15 2023 15:45:48) complex                        
  
 executed on             LinuxIFC date 2024.07.23  08:38:54
 running on    4 total cores
 distrk:  each k-point on    1 cores,    4 groups
 distr:  one band on NCORE=   1 cores,    1 groups


--------------------------------------------------------------------------------------------------------


 INCAR:
   SYSTEM = ni3al
   PREC = Accurate
   EDIFF = 1E-6
   EDIFFG = -1E-2
   ISTART = 0
   ICHARG = 2
   LREAL = Auto
   NSW = 0
   ISIF = 2
   IBRION = 1
   ISMEAR = 0
   SIGMA = 0.1
   ENCUT = 530
   ALGO = Fast
   LMAXMIX = 4
   AMIN = 0.01
   NELM = 150
   LCHARG = .FALSE.
   LWAVE = .TRUE.
   KPAR = 8

 POTCAR:   PAW_PBE C 08Apr2002                    
 POTCAR:   PAW_PBE F 08Apr2002                    
 POTCAR:   PAW_PBE Si 05Jan2001                   
 POTCAR:   PAW_PBE K_sv 06Sep2000                 
 POTCAR:   PAW_PBE C 08Apr2002                    
   VRHFIN =C: s2p2                                                                                  
   LEXCH  = PE                                                                                      
   EATOM  =   147.1560 eV,   10.8157 Ry                                                             
                                                                                                    
   TITEL  = PAW_PBE C 08Apr2002                                                                     
   LULTRA =        F    use ultrasoft PP ?                                                          
   IUNSCR =        0    unscreen: 0-lin 1-nonlin 2-no                                               
   RPACOR =     .000    partial core radius                                                         
   POMASS =   12.011; ZVAL   =    4.000    mass and valenz                                          
   RCORE  =    1.500    outmost cutoff radius                                                       
   RWIGS  =    1.630; RWIGS  =     .863    wigner-seitz radius (au A)                               
   ENMAX  =  400.000; ENMIN  =  300.000 eV                                                          
   ICORE  =        2    local potential                                                             
   LCOR   =        T    correct aug charges                                                         
   LPAW   =        T    paw PP                                                                      
   EAUG   =  644.873                                                                                
   DEXC   =     .000                                                                                
   RMAX   =    2.266    core radius for proj-oper                                                   
   RAUG   =    1.300    factor for augmentation sphere                                              
   RDEP   =    1.501    radius for radial grids                                                     
   RDEPT  =    1.300    core radius for aug-charge                                                  
   QCUT   =   -5.516; QGAM   =   11.032    optimization parameters                                  
                                                                                                    
   Description                                                                                      
     l     E      TYP  RCUT    TYP  RCUT                                                            
     0   .000     23  1.200                                                                         
     0   .000     23  1.200                                                                         
     1   .000     23  1.500                                                                         
     1  2.500     23  1.500                                                                         
     2   .000      7  1.500                                                                         
  local pseudopotential read in
  atomic valenz-charges read in
  non local Contribution for L=           0  read in
    real space projection operators read in
  non local Contribution for L=           0  read in
    real space projection operators read in
  non local Contribution for L=           1  read in
    real space projection operators read in
  non local Contribution for L=           1  read in
    real space projection operators read in
    PAW grid and wavefunctions read in
 
   number of l-projection  operators is LMAX  =           4
   number of lm-projection operators is LMMAX =           8
 
 POTCAR:   PAW_PBE F 08Apr2002                    
   VRHFIN =F: s2p5                                                                                  
   LEXCH  = PE                                                                                      
   EATOM  =   659.4942 eV,   48.4715 Ry                                                             
                                                                                                    
   TITEL  = PAW_PBE F 08Apr2002                                                                     
   LULTRA =        F    use ultrasoft PP ?                                                          
   IUNSCR =        0    unscreen: 0-lin 1-nonlin 2-no                                               
   RPACOR =     .000    partial core radius                                                         
   POMASS =   18.998; ZVAL   =    7.000    mass and valenz                                          
   RCORE  =    1.520    outmost cutoff radius                                                       
   RWIGS  =    1.500; RWIGS  =     .794    wigner-seitz radius (au A)                               
   ENMAX  =  400.000; ENMIN  =  300.000 eV                                                          
   ICORE  =        2    local potential                                                             
   LCOR   =        T    correct aug charges                                                         
   LPAW   =        T    paw PP                                                                      
   EAUG   =  613.614                                                                                
   DEXC   =     .000                                                                                
   RMAX   =    2.254    core radius for proj-oper                                                   
   RAUG   =    1.300    factor for augmentation sphere                                              
   RDEP   =    1.539    radius for radial grids                                                     
   QCUT   =   -5.545; QGAM   =   11.091    optimization parameters                                  
                                                                                                    
   Description                                                                                      
     l     E      TYP  RCUT    TYP  RCUT                                                            
     0   .000     23  1.200                                                                         
     0  -.700     23  1.200                                                                         
     1   .000     23  1.520                                                                         
     1   .100     23  1.520                                                                         
     2   .000      7  1.500                                                                         
  local pseudopotential read in
  atomic valenz-charges read in
  non local Contribution for L=           0  read in
    real space projection operators read in
  non local Contribution for L=           0  read in
    real space projection operators read in
  non local Contribution for L=           1  read in
    real space projection operators read in
  non local Contribution for L=           1  read in
    real space projection operators read in
    PAW grid and wavefunctions read in
 
   number of l-projection  operators is LMAX  =           4
   number of lm-projection operators is LMMAX =           8
 
 POTCAR:   PAW_PBE Si 05Jan2001                   
   VRHFIN =Si: s2p2                                                                                 
   LEXCH  = PE                                                                                      
   EATOM  =   103.0669 eV,    7.5752 Ry                                                             
                                                                                                    
   TITEL  = PAW_PBE Si 05Jan2001                                                                    
   LULTRA =        F    use ultrasoft PP ?                                                          
   IUNSCR =        1    unscreen: 0-lin 1-nonlin 2-no                                               
   RPACOR =    1.500    partial core radius                                                         
   POMASS =   28.085; ZVAL   =    4.000    mass and valenz                                          
   RCORE  =    1.900    outmost cutoff radius                                                       
   RWIGS  =    2.480; RWIGS  =    1.312    wigner-seitz radius (au A)                               
   ENMAX  =  245.345; ENMIN  =  184.009 eV                                                          
   ICORE  =        2    local potential                                                             
   LCOR   =        T    correct aug charges                                                         
   LPAW   =        T    paw PP                                                                      
   EAUG   =  322.069                                                                                
   DEXC   =    -.007                                                                                
   RMAX   =    2.944    core radius for proj-oper                                                   
   RAUG   =    1.300    factor for augmentation sphere                                              
   RDEP   =    1.993    radius for radial grids                                                     
   QCUT   =   -4.246; QGAM   =    8.493    optimization parameters                                  
                                                                                                    
   Description                                                                                      
     l     E      TYP  RCUT    TYP  RCUT                                                            
     0   .000     23  1.900                                                                         
     0   .000     23  1.900                                                                         
     1   .000     23  1.900                                                                         
     1   .000     23  1.900                                                                         
     2   .000      7  1.900                                                                         
  local pseudopotential read in
  partial core-charges read in
  atomic valenz-charges read in
  non local Contribution for L=           0  read in
    real space projection operators read in
  non local Contribution for L=           0  read in
    real space projection operators read in
  non local Contribution for L=           1  read in
    real space projection operators read in
  non local Contribution for L=           1  read in
    real space projection operators read in
    PAW grid and wavefunctions read in
 
   number of l-projection  operators is LMAX  =           4
   number of lm-projection operators is LMMAX =           8
 
 POTCAR:   PAW_PBE K_sv 06Sep2000                 
   VRHFIN =K:  3s3p4s                                                                               
   LEXCH  = PE                                                                                      
   EATOM  =   774.7423 eV,   56.9420 Ry                                                             
                                                                                                    
   TITEL  = PAW_PBE K_sv 06Sep2000                                                                  
   LULTRA =        F    use ultrasoft PP ?                                                          
   IUNSCR =        1    unscreen: 0-lin 1-nonlin 2-no                                               
   RPACOR =    2.200    partial core radius                                                         
   POMASS =   39.098; ZVAL   =    9.000    mass and valenz                                          
   RCORE  =    2.300    outmost cutoff radius                                                       
   RWIGS  =    3.000; RWIGS  =    1.588    wigner-seitz radius (au A)                               
   ENMAX  =  259.216; ENMIN  =  194.412 eV                                                          
   RCLOC  =    2.005    cutoff for local pot                                                        
   LCOR   =        T    correct aug charges                                                         
   LPAW   =        T    paw PP                                                                      
   EAUG   =  427.853                                                                                
   DEXC   =     .000                                                                                
   RMAX   =    2.864    core radius for proj-oper                                                   
   RAUG   =    1.300    factor for augmentation sphere                                              
   RDEP   =    2.372    radius for radial grids                                                     
   QCUT   =   -4.365; QGAM   =    8.730    optimization parameters                                  
                                                                                                    
   Description                                                                                      
     l     E      TYP  RCUT    TYP  RCUT                                                            
     0   .000     23  2.300                                                                         
     0   .000     23  2.300                                                                         
     1   .000     23  2.300                                                                         
     1 -1.500     23  2.300                                                                         
     2   .000     23  2.300                                                                         
  local pseudopotential read in
  partial core-charges read in
  atomic valenz-charges read in
  non local Contribution for L=           0  read in
    real space projection operators read in
  non local Contribution for L=           0  read in
    real space projection operators read in
  non local Contribution for L=           1  read in
    real space projection operators read in
  non local Contribution for L=           1  read in
    real space projection operators read in
  non local Contribution for L=           2  read in
    real space projection operators read in
    PAW grid and wavefunctions read in
 
   number of l-projection  operators is LMAX  =           5
   number of lm-projection operators is LMMAX =          13
 
 Optimization of the real space projectors (new method)

 maximal supplied QI-value         = 25.13
 optimisation between [QCUT,QGAM] = [ 11.56, 23.37] = [ 37.43,152.99] Ry 
 Optimized for a Real-space Cutoff    1.07 Angstroem

   l    n(q)    QCUT    max X(q) W(low)/X(q) W(high)/X(q)  e(spline) 
   0      7    11.561     5.582    0.43E-04    0.82E-04    0.19E-07
   0      7    11.561    69.432    0.18E-03    0.47E-03    0.23E-06
   1      7    11.561     2.780    0.18E-04    0.55E-04    0.48E-07
   1      7    11.561     4.549    0.18E-03    0.21E-03    0.13E-06
 Optimization of the real space projectors (new method)

 maximal supplied QI-value         = 24.76
 optimisation between [QCUT,QGAM] = [ 11.64, 23.52] = [ 37.91,154.88] Ry 
 Optimized for a Real-space Cutoff    1.07 Angstroem

   l    n(q)    QCUT    max X(q) W(low)/X(q) W(high)/X(q)  e(spline) 
   0      7    11.635     4.906    0.42E-04    0.10E-03    0.40E-07
   0      7    11.635     5.365    0.10E-03    0.31E-03    0.19E-06
   1      7    11.635     2.511    0.38E-04    0.13E-03    0.21E-07
   1      7    11.635     3.801    0.24E-03    0.28E-03    0.21E-06
 Optimization of the real space projectors (new method)

 maximal supplied QI-value         = 19.84
 optimisation between [QCUT,QGAM] = [ 11.71, 23.41] = [ 38.38,153.51] Ry 
 Optimized for a Real-space Cutoff    1.20 Angstroem

   l    n(q)    QCUT    max X(q) W(low)/X(q) W(high)/X(q)  e(spline) 
   0      8    11.707     8.708    0.17E-04    0.67E-05    0.45E-08
   0      8    11.707   106.241    0.59E-04    0.18E-03    0.53E-07
   1      8    11.707     5.901    0.60E-05    0.19E-04    0.21E-07
   1      8    11.707    73.241    0.22E-03    0.21E-04    0.75E-07
 Optimization of the real space projectors (new method)

 maximal supplied QI-value         = 16.25
 optimisation between [QCUT,QGAM] = [ 11.70, 23.56] = [ 38.34,155.50] Ry 
 Optimized for a Real-space Cutoff    1.35 Angstroem

   l    n(q)    QCUT    max X(q) W(low)/X(q) W(high)/X(q)  e(spline) 
   0     10    11.701     6.336    0.13E-04    0.76E-05    0.61E-08
   0     10    11.701    13.439    0.24E-04    0.57E-04    0.47E-07
   1      9    11.701     3.724    0.22E-04    0.12E-04    0.26E-07
   1      9    11.701    38.716    0.12E-03    0.50E-03    0.44E-06
   2      9    11.701     3.434    0.48E-04    0.68E-04    0.36E-07
 PAW_PBE C 08Apr2002                    :
 energy of atom  1       EATOM= -147.1560
 kinetic energy error for atom=    0.0069 (will be added to EATOM!!)
 PAW_PBE F 08Apr2002                    :
 energy of atom  2       EATOM= -659.4942
 kinetic energy error for atom=    0.0313 (will be added to EATOM!!)
 PAW_PBE Si 05Jan2001                   :
 energy of atom  3       EATOM= -103.0669
 kinetic energy error for atom=    0.0005 (will be added to EATOM!!)
 PAW_PBE K_sv 06Sep2000                 :
 energy of atom  4       EATOM= -774.7423
 kinetic energy error for atom=    0.0012 (will be added to EATOM!!)
 
 
 POSCAR: POSCAR
  positions in direct lattice
  velocities in cartesian coordinates
 exchange correlation table for  LEXCH =        8
   RHO(1)=    0.500       N(1)  =     2000
   RHO(2)=  100.500       N(2)  =     4000

 VTST: version 4.2, (08/11/21)

 CHAIN: initializing optimizer
 
 OPT: Using VASP QUASI-newton optimizer
 CHAIN: Read ICHAIN            0
 
 POSCAR: POSCAR
  positions in direct lattice
  velocities in cartesian coordinates
 


--------------------------------------------------------------------------------------------------------


 ion  position               nearest neighbor table
   1  0.000  0.000  0.312-  57 1.89  73 1.89  80 1.89  52 1.90
   2  0.167  0.250  0.312-  64 1.89  56 1.89  57 1.89  53 1.90
   3  1.000  0.333  0.439-  69 1.83  53 1.83  76 1.83
   4  0.167  0.083  0.438-  52 1.83  60 1.83  53 1.83
   5  0.000  0.167  0.035-  50 1.90  51 1.90  67 1.90  54 1.90
   6  0.167  0.417  0.035-  51 1.90  82 1.90  74 1.90  55 1.90
   7  0.000  0.333  0.174-  55 1.89  71 1.89  54 1.89  56 1.90
   8  0.167  0.083  0.174-  62 1.89  54 1.89  79 1.89  57 1.90
   9  0.333  0.000  0.312-  57 1.89  65 1.89  88 1.89  60 1.90
  10  0.500  0.250  0.312-  72 1.89  65 1.89  64 1.89  61 1.90
  11  0.334  0.334  0.441-  84 1.84  61 1.84  53 1.84
  12  0.500  0.083  0.438-  68 1.83  61 1.83  60 1.83
  13  0.333  0.167  0.035-  58 1.90  51 1.90  59 1.90  62 1.90
  14  0.500  0.417  0.035-  59 1.90  82 1.90  90 1.90  63 1.90
  15  0.333  0.333  0.174-  55 1.89  63 1.89  62 1.89  64 1.90
  16  0.500  0.083  0.174-  62 1.89  70 1.89  87 1.89  65 1.90
  17  0.667  0.000  0.312-  73 1.89  65 1.89  96 1.89  68 1.90
  18  0.833  0.250  0.312-  72 1.89  56 1.89  73 1.89  69 1.90
  19  0.666  0.334  0.439-  92 1.83  61 1.83  69 1.84
  20  0.833  0.083  0.439-  68 1.83  52 1.83  69 1.83
  21  0.667  0.167  0.035-  66 1.90  67 1.90  59 1.90  70 1.90
  22  0.833  0.417  0.035-  67 1.90  90 1.90  74 1.90  71 1.90
  23  0.667  0.333  0.174-  71 1.89  63 1.89  70 1.89  72 1.90
  24  0.833  0.083  0.174-  70 1.89  54 1.89  95 1.89  73 1.90
  25  0.000  0.500  0.312-  81 1.89  97 1.89  56 1.89  76 1.90
  26  0.167  0.750  0.312-  88 1.89  80 1.89  81 1.89  77 1.90
  27  1.000  0.833  0.439-  52 1.83  93 1.83  77 1.83
  28  0.167  0.583  0.444-  84 1.85  77 1.85  76 1.86  98 2.79
  29  0.000  0.667  0.035-  74 1.90  75 1.90  91 1.90  78 1.90
  30  0.167  0.917  0.035-  75 1.90  58 1.90  50 1.90  79 1.90
  31  0.000  0.833  0.174-  79 1.89  95 1.89  78 1.89  80 1.90
  32  0.167  0.583  0.174-  86 1.89  78 1.89  55 1.89  81 1.90
  33  0.333  0.500  0.312-  64 1.89  81 1.89  89 1.89  84 1.90
  34  0.500  0.750  0.312-  88 1.89  96 1.89  89 1.89  85 1.90
  35  0.334  0.833  0.440-  85 1.83  77 1.84  60 1.84
  36  0.500  0.583  0.449-  49 1.49  92 1.88  85 1.88  84 1.88
  37  0.333  0.667  0.035-  82 1.90  75 1.90  83 1.90  86 1.90
  38  0.500  0.917  0.035-  83 1.90  66 1.90  58 1.90  87 1.90
  39  0.333  0.833  0.174-  79 1.89  87 1.89  86 1.89  88 1.90
  40  0.500  0.583  0.174-  86 1.89  94 1.89  63 1.89  89 1.90
  41  0.667  0.500  0.312-  97 1.89  89 1.89  72 1.89  92 1.90
  42  0.833  0.750  0.312-  96 1.89  80 1.89  97 1.89  93 1.90
  43  0.666  0.833  0.439-  85 1.83  93 1.83  68 1.84
  44  0.833  0.583  0.439-  92 1.83  93 1.83  76 1.84
  45  0.667  0.667  0.035-  90 1.90  91 1.90  83 1.90  94 1.90
  46  0.833  0.917  0.035-  91 1.90  66 1.90  50 1.90  95 1.90
  47  0.667  0.833  0.174-  95 1.89  87 1.89  94 1.89  96 1.90
  48  0.833  0.583  0.174-  94 1.89  78 1.89  71 1.89  97 1.90
  49  0.498  0.584  0.531-  36 1.49  98 2.64
  50  0.000  0.000  0.000-   5 1.90  30 1.90  46 1.90  58 3.09  66 3.09  51 3.09  67 3.09  75 3.09
                            91 3.09  54 3.10  79 3.10  95 3.10
  51  0.167  0.250  0.000-   6 1.90  13 1.90   5 1.90  58 3.09  82 3.09  59 3.09  74 3.09  50 3.09
                            67 3.09  55 3.10  62 3.10  54 3.10
  52  0.000  0.000  0.417-  27 1.83   4 1.83  20 1.83   1 1.90  60 3.09  68 3.09  53 3.09  69 3.09
                            77 3.09  93 3.09  57 3.10  73 3.10  80 3.10
  53  0.167  0.250  0.417-   4 1.83   3 1.83  11 1.84   2 1.90  60 3.09  84 3.09  61 3.09  76 3.09
                            52 3.09  69 3.09  64 3.10  56 3.10  57 3.10
  54  0.000  0.167  0.139-   8 1.89  24 1.89   7 1.89   5 1.90  62 3.09  70 3.09  55 3.09  71 3.09
                            79 3.09  95 3.09  57 3.10  73 3.10  56 3.10  50 3.10  67 3.10  51 3.10
  55  0.167  0.417  0.139-  15 1.89   7 1.89  32 1.89   6 1.90  62 3.09  86 3.09  63 3.09  78 3.09
                            54 3.09  71 3.09  64 3.10  56 3.10  81 3.10  51 3.10  82 3.10  74 3.10
  56  0.000  0.333  0.278-   2 1.89  18 1.89  25 1.89   7 1.90  72 3.09  64 3.09  57 3.09  73 3.09
                            81 3.09  97 3.09  55 3.10  71 3.10  54 3.10  69 3.10  53 3.10  76 3.10
  57  0.167  0.083  0.278-   9 1.89   1 1.89   2 1.89   8 1.90  88 3.09  65 3.09  80 3.09  56 3.09
                            64 3.09  73 3.09  62 3.10  54 3.10  79 3.10  60 3.10  52 3.10  53 3.10
  58  0.333  0.000  0.000-  13 1.90  30 1.90  38 1.90  51 3.09  75 3.09  50 3.09  59 3.09  83 3.09
                            66 3.09  62 3.10  79 3.10  87 3.10
  59  0.500  0.250  0.000-  14 1.90  13 1.90  21 1.90  51 3.09  67 3.09  66 3.09  58 3.09  82 3.09
                            90 3.09  63 3.10  62 3.10  70 3.10
  60  0.333  0.000  0.417-   4 1.83  12 1.83  35 1.84   9 1.90  53 3.09  77 3.09  52 3.09  61 3.09
                            85 3.09  68 3.09  57 3.10  65 3.10  88 3.10
  61  0.500  0.250  0.417-  12 1.83  19 1.83  11 1.84  10 1.90  53 3.09  69 3.09  68 3.09  60 3.09
                            84 3.09  92 3.09  72 3.10  65 3.10  64 3.10
  62  0.333  0.167  0.139-   8 1.89  16 1.89  15 1.89  13 1.90  55 3.09  79 3.09  54 3.09  63 3.09
                            87 3.09  70 3.09  57 3.10  65 3.10  64 3.10  58 3.10  51 3.10  59 3.10
  63  0.500  0.417  0.139-  15 1.89  23 1.89  40 1.89  14 1.90  55 3.09  71 3.09  70 3.09  62 3.09
                            86 3.09  94 3.09  64 3.10  72 3.10  89 3.10  59 3.10  90 3.10  82 3.10
  64  0.333  0.333  0.278-  33 1.89   2 1.89  10 1.89  15 1.90  81 3.09  89 3.09  56 3.09  57 3.09
                            72 3.09  65 3.09  55 3.10  63 3.10  62 3.10  84 3.10  53 3.10  61 3.10
  65  0.500  0.083  0.278-   9 1.89  17 1.89  10 1.89  16 1.90  57 3.09  73 3.09  72 3.09  88 3.09
                            96 3.09  64 3.09  62 3.10  70 3.10  87 3.10  60 3.10  68 3.10  61 3.10
  66  0.667  0.000  0.000-  21 1.90  46 1.90  38 1.90  67 3.09  91 3.09  50 3.09  83 3.09  59 3.09
                            58 3.09  70 3.10  95 3.10  87 3.10
  67  0.833  0.250  0.000-  22 1.90  21 1.90   5 1.90  66 3.09  90 3.09  59 3.09  74 3.09  50 3.09
                            51 3.09  71 3.10  70 3.10  54 3.10
  68  0.667  0.000  0.417-  12 1.83  20 1.83  43 1.84  17 1.90  69 3.09  93 3.09  52 3.09  85 3.09
                            61 3.09  60 3.09  73 3.10  65 3.10  96 3.10
  69  0.833  0.250  0.417-   3 1.83  20 1.83  19 1.84  18 1.90  68 3.09  92 3.09  61 3.09  76 3.09
                            52 3.09  53 3.09  72 3.10  56 3.10  73 3.10
  70  0.667  0.167  0.139-  24 1.89  16 1.89  23 1.89  21 1.90  71 3.09  95 3.09  54 3.09  87 3.09
                            63 3.09  62 3.09  73 3.10  65 3.10  72 3.10  66 3.10  67 3.10  59 3.10
  71  0.833  0.417  0.139-  23 1.89   7 1.89  48 1.89  22 1.90  70 3.09  94 3.09  63 3.09  78 3.09
                            54 3.09  55 3.09  72 3.10  56 3.10  97 3.10  67 3.10  90 3.10  74 3.10
  72  0.667  0.333  0.278-  18 1.89  10 1.89  41 1.89  23 1.90  73 3.09  97 3.09  56 3.09  89 3.09
                            65 3.09  64 3.09  71 3.10  63 3.10  70 3.10  69 3.10  61 3.10  92 3.10
  73  0.833  0.083  0.278-  17 1.89   1 1.89  18 1.89  24 1.90  72 3.09  96 3.09  65 3.09  80 3.09
                            56 3.09  57 3.09  70 3.10  54 3.10  95 3.10  68 3.10  52 3.10  69 3.10
  74  0.000  0.500  0.000-  29 1.90  22 1.90   6 1.90  82 3.09  90 3.09  75 3.09  51 3.09  67 3.09
                            91 3.09  78 3.10  71 3.10  55 3.10
  75  0.167  0.750  0.000-  30 1.90  37 1.90  29 1.90  58 3.09  82 3.09  83 3.09  50 3.09  74 3.09
                            91 3.09  79 3.10  86 3.10  78 3.10
  76  0.000  0.500  0.417-   3 1.83  44 1.84  28 1.86  25 1.90  84 3.09  92 3.09  77 3.09  53 3.09
                            69 3.09  93 3.09  81 3.10  97 3.10  56 3.10
  77  0.167  0.750  0.417-  27 1.83  35 1.84  28 1.85  26 1.90  60 3.09  84 3.09  85 3.09  52 3.09
                            76 3.09  93 3.09  88 3.10  80 3.10  81 3.10
  78  0.000  0.667  0.139-  32 1.89  48 1.89  31 1.89  29 1.90  86 3.09  94 3.09  79 3.09  55 3.09
                            71 3.09  95 3.09  81 3.10  97 3.10  80 3.10  74 3.10  91 3.10  75 3.10
  79  0.167  0.917  0.139-  39 1.89  31 1.89   8 1.89  30 1.90  62 3.09  86 3.09  87 3.09  54 3.09
                            78 3.09  95 3.09  88 3.10  80 3.10  57 3.10  75 3.10  58 3.10  50 3.10
  80  0.000  0.833  0.278-  26 1.89  42 1.89   1 1.89  31 1.90  88 3.09  96 3.09  81 3.09  57 3.09
                            73 3.09  97 3.09  79 3.10  95 3.10  78 3.10  93 3.10  77 3.10  52 3.10
  81  0.167  0.583  0.278-  33 1.89  25 1.89  26 1.89  32 1.90  64 3.09  88 3.09  89 3.09  56 3.09
                            80 3.09  97 3.09  86 3.10  78 3.10  55 3.10  84 3.10  76 3.10  77 3.10
  82  0.333  0.500  0.000-  37 1.90   6 1.90  14 1.90  51 3.09  75 3.09  74 3.09  59 3.09  83 3.09
                            90 3.09  86 3.10  55 3.10  63 3.10
  83  0.500  0.750  0.000-  38 1.90  37 1.90  45 1.90  75 3.09  91 3.09  58 3.09  82 3.09  90 3.09
                            66 3.09  87 3.10  86 3.10  94 3.10
  84  0.333  0.500  0.417-  11 1.84  28 1.85  36 1.88  33 1.90  53 3.09  77 3.09  76 3.09  61 3.09
                            85 3.09  92 3.09  64 3.10  81 3.10  89 3.10  98 3.41
  85  0.500  0.750  0.417-  43 1.83  35 1.83  36 1.88  34 1.90  77 3.09  93 3.09  60 3.09  84 3.09
                            92 3.09  68 3.09  88 3.10  96 3.10  89 3.10
  86  0.333  0.667  0.139-  32 1.89  40 1.89  39 1.89  37 1.90  55 3.09  79 3.09  78 3.09  63 3.09
                            87 3.09  94 3.09  81 3.10  89 3.10  88 3.10  82 3.10  75 3.10  83 3.10
  87  0.500  0.917  0.139-  39 1.89  47 1.89  16 1.89  38 1.90  79 3.09  95 3.09  62 3.09  86 3.09
                            94 3.09  70 3.09  88 3.10  96 3.10  65 3.10  83 3.10  58 3.10  66 3.10
  88  0.333  0.833  0.278-  26 1.89  34 1.89   9 1.89  39 1.90  57 3.09  81 3.09  80 3.09  65 3.09
                            89 3.09  96 3.09  79 3.10  87 3.10  86 3.10  77 3.10  85 3.10  60 3.10
  89  0.500  0.583  0.278-  33 1.89  41 1.89  34 1.89  40 1.90  64 3.09  81 3.09  97 3.09  88 3.09
                            96 3.09  72 3.09  86 3.10  94 3.10  63 3.10  92 3.10  84 3.10  85 3.10
  90  0.667  0.500  0.000-  45 1.90  22 1.90  14 1.90  67 3.09  91 3.09  74 3.09  83 3.09  59 3.09
                            82 3.09  94 3.10  71 3.10  63 3.10
  91  0.833  0.750  0.000-  46 1.90  45 1.90  29 1.90  66 3.09  90 3.09  83 3.09  50 3.09  74 3.09
                            75 3.09  95 3.10  94 3.10  78 3.10
  92  0.667  0.500  0.417-  19 1.83  44 1.83  36 1.88  41 1.90  69 3.09  93 3.09  76 3.09  85 3.09
                            61 3.09  84 3.09  97 3.10  89 3.10  72 3.10
  93  0.833  0.750  0.417-  27 1.83  43 1.83  44 1.83  42 1.90  68 3.09  92 3.09  85 3.09  52 3.09
                            76 3.09  77 3.09  96 3.10  80 3.10  97 3.10
  94  0.667  0.667  0.139-  48 1.89  40 1.89  47 1.89  45 1.90  71 3.09  95 3.09  78 3.09  87 3.09
                            63 3.09  86 3.09  97 3.10  89 3.10  96 3.10  90 3.10  91 3.10  83 3.10
  95  0.833  0.917  0.139-  47 1.89  31 1.89  24 1.89  46 1.90  70 3.09  94 3.09  87 3.09  54 3.09
                            78 3.09  79 3.09  96 3.10  80 3.10  73 3.10  91 3.10  66 3.10  50 3.10
  96  0.667  0.833  0.278-  42 1.89  34 1.89  17 1.89  47 1.90  73 3.09  97 3.09  80 3.09  89 3.09
                            65 3.09  88 3.09  95 3.10  87 3.10  94 3.10  93 3.10  85 3.10  68 3.10
  97  0.833  0.583  0.278-  41 1.89  25 1.89  42 1.89  48 1.90  72 3.09  96 3.09  89 3.09  56 3.09
                            80 3.09  81 3.09  94 3.10  78 3.10  71 3.10  92 3.10  76 3.10  93 3.10
  98  0.241  0.576  0.592-  49 2.64  28 2.79  84 3.41
 
  LATTYP: Found a simple orthorhombic cell.
 ALAT       =     9.2842620000
 B/A-ratio  =     1.1547005029
 C/A-ratio  =     1.9632408047
  
  Lattice vectors:
  
 A1 = (   9.2842620000,   0.0000000000,   0.0000000000)
 A2 = (   0.0000000000,  10.7205420000,   0.0000000000)
 A3 = (   0.0000000000,   0.0000000000,  18.2272420000)


Analysis of symmetry for initial positions (statically):
=====================================================================
 Subroutine PRICEL returns:
 Original cell was already a primitive cell.
 

 Routine SETGRP: Setting up the symmetry group for a 
 simple orthorhombic supercell.


 Subroutine GETGRP returns: Found  1 space group operations
 (whereof  1 operations were pure point group operations)
 out of a pool of  8 trial point group operations.


The static configuration has the point symmetry C_1 .


Analysis of symmetry for dynamics (positions and initial velocities):
=====================================================================
 Subroutine PRICEL returns:
 Original cell was already a primitive cell.
 

 Routine SETGRP: Setting up the symmetry group for a 
 simple orthorhombic supercell.


 Subroutine GETGRP returns: Found  1 space group operations
 (whereof  1 operations were pure point group operations)
 out of a pool of  8 trial point group operations.


The dynamic configuration has the point symmetry C_1 .


Analysis of constrained symmetry for selective dynamics:
=====================================================================
 Subroutine PRICEL returns:
 Original cell was already a primitive cell.
 

 Routine SETGRP: Setting up the symmetry group for a 
 simple orthorhombic supercell.


 Subroutine GETGRP returns: Found  1 space group operations
 (whereof  1 operations were pure point group operations)
 out of a pool of  8 trial point group operations.


The constrained configuration has the point symmetry C_1 .


 Subroutine INISYM returns: Found  1 space group operations
 (whereof  1 operations are pure point group operations),
 and found     1 'primitive' translations


----------------------------------------------------------------------------------------

                                     Primitive cell                                     

  volume of cell :    1814.1997

  direct lattice vectors                    reciprocal lattice vectors
     9.284262000  0.000000000  0.000000000     0.107709153  0.000000000  0.000000000
     0.000000000 10.720542000  0.000000000     0.000000000  0.093278866  0.000000000
     0.000000000  0.000000000 18.227242000     0.000000000  0.000000000  0.054862935

  length of vectors
     9.284262000 10.720542000 18.227242000     0.107709153  0.093278866  0.054862935

  position of ions in fractional coordinates (direct lattice)
     0.000000000  0.000000000  0.312130000
     0.166667000  0.250000000  0.312130000
     0.999926735  0.333232985  0.438848389
     0.166650345  0.083259745  0.438486651
     0.000000000  0.166666000  0.034822000
     0.166667000  0.416666000  0.034822000
     0.000000000  0.333333000  0.173518000
     0.166667000  0.083333000  0.173518000
     0.333333000  0.000000000  0.312130000
     0.500000000  0.250000000  0.312130000
     0.333624395  0.333707971  0.440518247
     0.500087625  0.083347239  0.438231289
     0.333333000  0.166666000  0.034822000
     0.500000000  0.416666000  0.034822000
     0.333333000  0.333334000  0.173518000
     0.500000000  0.083333000  0.173518000
     0.666667000  0.000000000  0.312130000
     0.833333000  0.250000000  0.312130000
     0.666486159  0.333610187  0.438847067
     0.833264045  0.083294677  0.438634554
     0.666667000  0.166666000  0.034822000
     0.833333000  0.416666000  0.034822000
     0.666667000  0.333333000  0.173518000
     0.833333000  0.083333000  0.173518000
     0.000000000  0.500000000  0.312130000
     0.166667000  0.750000000  0.312130000
     0.999922447  0.833437271  0.438556076
     0.167099336  0.583418868  0.443527060
     0.000000000  0.666666000  0.034822000
     0.166667000  0.916666000  0.034822000
     0.000000000  0.833333000  0.173518000
     0.166667000  0.583333000  0.173518000
     0.333333000  0.500000000  0.312130000
     0.500000000  0.750000000  0.312130000
     0.333585591  0.833004799  0.440123123
     0.500086562  0.583321404  0.448875163
     0.333333000  0.666666000  0.034822000
     0.500000000  0.916666000  0.034822000
     0.333333000  0.833333000  0.173518000
     0.500000000  0.583333000  0.173518000
     0.666667000  0.500000000  0.312130000
     0.833333000  0.750000000  0.312130000
     0.666483214  0.833025975  0.438916735
     0.832892436  0.583366340  0.439184609
     0.666667000  0.666666000  0.034822000
     0.833333000  0.916666000  0.034822000
     0.666667000  0.833333000  0.173518000
     0.833333000  0.583333000  0.173518000
     0.497761792  0.583555093  0.530648963
     0.000000000  0.000000000  0.000000000
     0.166667000  0.250000000  0.000000000
     0.000000000  0.000000000  0.416549000
     0.166667000  0.250000000  0.416549000
     0.000000000  0.166666000  0.138949000
     0.166667000  0.416666000  0.138949000
     0.000000000  0.333333000  0.277649000
     0.166667000  0.083333000  0.277649000
     0.333333000  0.000000000  0.000000000
     0.500000000  0.250000000  0.000000000
     0.333333000  0.000000000  0.416549000
     0.500000000  0.250000000  0.416549000
     0.333333000  0.166666000  0.138949000
     0.500000000  0.416666000  0.138949000
     0.333333000  0.333334000  0.277649000
     0.500000000  0.083333000  0.277649000
     0.666667000  0.000000000  0.000000000
     0.833333000  0.250000000  0.000000000
     0.666667000  0.000000000  0.416549000
     0.833333000  0.250000000  0.416549000
     0.666667000  0.166666000  0.138949000
     0.833333000  0.416666000  0.138949000
     0.666667000  0.333333000  0.277649000
     0.833333000  0.083333000  0.277649000
     0.000000000  0.500000000  0.000000000
     0.166667000  0.750000000  0.000000000
     0.000000000  0.500000000  0.416549000
     0.166667000  0.750000000  0.416549000
     0.000000000  0.666666000  0.138949000
     0.166667000  0.916666000  0.138949000
     0.000000000  0.833333000  0.277649000
     0.166667000  0.583333000  0.277649000
     0.333333000  0.500000000  0.000000000
     0.500000000  0.750000000  0.000000000
     0.333333000  0.500000000  0.416549000
     0.500000000  0.750000000  0.416549000
     0.333333000  0.666666000  0.138949000
     0.500000000  0.916666000  0.138949000
     0.333333000  0.833333000  0.277649000
     0.500000000  0.583333000  0.277649000
     0.666667000  0.500000000  0.000000000
     0.833333000  0.750000000  0.000000000
     0.666667000  0.500000000  0.416549000
     0.833333000  0.750000000  0.416549000
     0.666667000  0.666666000  0.138949000
     0.833333000  0.916666000  0.138949000
     0.666667000  0.833333000  0.277649000
     0.833333000  0.583333000  0.277649000
     0.240697889  0.576412173  0.592009955

  ion indices of the primitive-cell ions
   primitive index   ion index
                 1           1
                 2           2
                 3           3
                 4           4
                 5           5
                 6           6
                 7           7
                 8           8
                 9           9
                10          10
                11          11
                12          12
                13          13
                14          14
                15          15
                16          16
                17          17
                18          18
                19          19
                20          20
                21          21
                22          22
                23          23
                24          24
                25          25
                26          26
                27          27
                28          28
                29          29
                30          30
                31          31
                32          32
                33          33
                34          34
                35          35
                36          36
                37          37
                38          38
                39          39
                40          40
                41          41
                42          42
                43          43
                44          44
                45          45
                46          46
                47          47
                48          48
                49          49
                50          50
                51          51
                52          52
                53          53
                54          54
                55          55
                56          56
                57          57
                58          58
                59          59
                60          60
                61          61
                62          62
                63          63
                64          64
                65          65
                66          66
                67          67
                68          68
                69          69
                70          70
                71          71
                72          72
                73          73
                74          74
                75          75
                76          76
                77          77
                78          78
                79          79
                80          80
                81          81
                82          82
                83          83
                84          84
                85          85
                86          86
                87          87
                88          88
                89          89
                90          90
                91          91
                92          92
                93          93
                94          94
                95          95
                96          96
                97          97
                98          98

----------------------------------------------------------------------------------------

 
 
 KPOINTS: K-Spacing Value to Generate K-Mesh: 0.03

Automatic generation of k-mesh.
 Grid dimensions read from file:
 generate k-points for:    4    3    1

 Generating k-lattice:

  Cartesian coordinates                     Fractional coordinates (reciprocal lattice)
     0.026927288  0.000000000  0.000000000     0.250000000  0.000000000  0.000000000
     0.000000000  0.031092955  0.000000000     0.000000000  0.333333333  0.000000000
     0.000000000  0.000000000  0.054862935     0.000000000  0.000000000  1.000000000

  Length of vectors
     0.026927288  0.031092955  0.054862935

  Shift w.r.t. Gamma in fractional coordinates (k-lattice)
     0.000000000  0.000000000  0.000000000

 
 Subroutine IBZKPT returns following result:
 ===========================================
 
 Found      7 irreducible k-points:
 
 Following reciprocal coordinates:
            Coordinates               Weight
  0.000000  0.000000  0.000000      1.000000
  0.250000  0.000000  0.000000      2.000000
  0.500000  0.000000  0.000000      1.000000
  0.000000  0.333333  0.000000      2.000000
  0.250000  0.333333  0.000000      2.000000
  0.250000 -0.333333  0.000000      2.000000
  0.500000  0.333333  0.000000      2.000000
 
 Following cartesian coordinates:
            Coordinates               Weight
  0.000000  0.000000  0.000000      1.000000
  0.026927  0.000000  0.000000      2.000000
  0.053855  0.000000  0.000000      1.000000
  0.000000  0.031093  0.000000      2.000000
  0.026927  0.031093  0.000000      2.000000
  0.026927 -0.031093  0.000000      2.000000
  0.053855  0.031093  0.000000      2.000000
 


--------------------------------------------------------------------------------------------------------




 Dimension of arrays:
   k-points           NKPTS =      7   k-points in BZ     NKDIM =      7   number of bands    NBANDS=    250
   number of dos      NEDOS =    301   number of ions     NIONS =     98
   non local maximal  LDIM  =      5   non local SUM 2l+1 LMDIM =     13
   total plane-waves  NPLWV = 784000
   max r-space proj   IRMAX =   4502   max aug-charges    IRDMAX=  20312
   dimension x,y,z NGX =    70 NGY =   80 NGZ =  140
   dimension x,y,z NGXF=   140 NGYF=  160 NGZF=  280
   support grid    NGXF=   140 NGYF=  160 NGZF=  280
   ions per type =              48   1  48   1
   NGX,Y,Z   is equivalent  to a cutoff of  12.53, 12.41, 12.77 a.u.
   NGXF,Y,Z  is equivalent  to a cutoff of  25.07, 24.81, 25.54 a.u.

 SYSTEM =  ni3al                                   
 POSCAR =  POSCAR                                  

 Startparameter for this run:
   NWRITE =      2    write-flag & timer
   PREC   = accura    normal or accurate (medium, high low for compatibility)
   ISTART =      0    job   : 0-new  1-cont  2-samecut
   ICHARG =      2    charge: 1-file 2-atom 10-const
   ISPIN  =      1    spin polarized calculation?
   LNONCOLLINEAR =      F non collinear calculations
   LSORBIT =      F    spin-orbit coupling
   INIWAV =      1    electr: 0-lowe 1-rand  2-diag
   LASPH  =      F    aspherical Exc in radial PAW
 Electronic Relaxation 1
   ENCUT  =  530.0 eV  38.95 Ry    6.24 a.u.  17.43 20.12 34.21*2*pi/ulx,y,z
   ENINI  =  530.0     initial cutoff
   ENAUG  =  644.9 eV  augmentation charge cutoff
   NELM   =    150;   NELMIN=  2; NELMDL= -5     # of ELM steps 
   EDIFF  = 0.1E-05   stopping-criterion for ELM
   LREAL  =      T    real-space projection
   NLSPLINE    = F    spline interpolate recip. space projectors
   LCOMPAT=      F    compatible to vasp.4.4
   GGA_COMPAT  = T    GGA compatible to vasp.4.4-vasp.4.6
   LMAXPAW     = -100 max onsite density
   LMAXMIX     =    4 max onsite mixed and CHGCAR
   VOSKOWN=      0    Vosko Wilk Nusair interpolation
   ROPT   =   -0.00025  -0.00025  -0.00025  -0.00025
 Ionic relaxation
   EDIFFG = -.1E-01   stopping-criterion for IOM
   NSW    =      0    number of steps for IOM
   NBLOCK =      1;   KBLOCK =      1    inner block; outer block 
   IBRION =     -1    ionic relax: 0-MD 1-quasi-New 2-CG
   NFREE  =      0    steps in history (QN), initial steepest desc. (CG)
   ISIF   =      2    stress and relaxation
   IWAVPR =     10    prediction:  0-non 1-charg 2-wave 3-comb
   ISYM   =      2    0-nonsym 1-usesym 2-fastsym
   LCORR  =      T    Harris-Foulkes like correction to forces

   POTIM  = 0.5000    time-step for ionic-motion
   TEIN   =    0.0    initial temperature
   TEBEG  =    0.0;   TEEND  =   0.0 temperature during run
   SMASS  =  -3.00    Nose mass-parameter (am)
   estimated Nose-frequenzy (Omega)   =  0.10E-29 period in steps = 0.13E+47 mass=  -0.197E-26a.u.
   SCALEE = 1.0000    scale energy and forces
   NPACO  =    256;   APACO  = 10.0  distance and # of slots for P.C.
   PSTRESS=    0.0 pullay stress

  Mass of Ions in am
   POMASS =  12.01 19.00 28.09 39.10
  Ionic Valenz
   ZVAL   =   4.00  7.00  4.00  9.00
  Atomic Wigner-Seitz radii
   RWIGS  =  -1.00 -1.00 -1.00 -1.00
  virtual crystal weights 
   VCA    =   1.00  1.00  1.00  1.00
   NELECT =     400.0000    total number of electrons
   NUPDOWN=      -1.0000    fix difference up-down

 DOS related values:
   EMIN   =  10.00;   EMAX   =-10.00  energy-range for DOS
   EFERMI =   0.00
   ISMEAR =     0;   SIGMA  =   0.10  broadening in eV -4-tet -1-fermi 0-gaus

 Electronic relaxation 2 (details)
   IALGO  =     68    algorithm
   LDIAG  =      T    sub-space diagonalisation (order eigenvalues)
   LSUBROT=      F    optimize rotation matrix (better conditioning)
   TURBO    =      0    0=normal 1=particle mesh
   IRESTART =      0    0=no restart 2=restart with 2 vectors
   NREBOOT  =      0    no. of reboots
   NMIN     =      0    reboot dimension
   EREF     =   0.00    reference energy to select bands
   IMIX   =      4    mixing-type and parameters
     AMIX     =   0.40;   BMIX     =  1.00
     AMIX_MAG =   1.60;   BMIX_MAG =  1.00
     AMIN     =   0.01
     WC   =   100.;   INIMIX=   1;  MIXPRE=   1;  MAXMIX= -45

 Intra band minimization:
   WEIMIN = 0.0000     energy-eigenvalue tresh-hold
   EBREAK =  0.10E-08  absolut break condition
   DEPER  =   0.30     relativ break condition  

   TIME   =   0.40     timestep for ELM

  volume/ion in A,a.u.               =      18.51       124.93
  Fermi-wavevector in a.u.,A,eV,Ry     =   0.989008  1.868954 13.308359  0.978137
  Thomas-Fermi vector in A             =   2.120576
 
 Write flags
   LWAVE        =      T    write WAVECAR
   LDOWNSAMPLE  =      F    k-point downsampling of WAVECAR
   LCHARG       =      F    write CHGCAR
   LVTOT        =      F    write LOCPOT, total local potential
   LVHAR        =      F    write LOCPOT, Hartree potential only
   LELF         =      F    write electronic localiz. function (ELF)
   LORBIT       =      0    0 simple, 1 ext, 2 COOP (PROOUT), +10 PAW based schemes


 Dipole corrections
   LMONO  =      F    monopole corrections only (constant potential shift)
   LDIPOL =      F    correct potential (dipole corrections)
   IDIPOL =      0    1-x, 2-y, 3-z, 4-all directions 
   EPSILON=  1.0000000 bulk dielectric constant

 Exchange correlation treatment:
   GGA     =    --    GGA type
   LEXCH   =     8    internal setting for exchange type
   LIBXC   =     F    Libxc                    
   VOSKOWN =     0    Vosko Wilk Nusair interpolation
   LHFCALC =     F    Hartree Fock is set to
   LHFONE  =     F    Hartree Fock one center treatment
   AEXX    =    0.0000 exact exchange contribution

 Linear response parameters
   LEPSILON=     F    determine dielectric tensor
   LRPA    =     F    only Hartree local field effects (RPA)
   LNABLA  =     F    use nabla operator in PAW spheres
   LVEL    =     F    velocity operator in full k-point grid
   CSHIFT  =0.1000    complex shift for real part using Kramers Kronig
   OMEGAMAX=  -1.0    maximum frequency
   DEG_THRESHOLD= 0.2000000E-02 threshold for treating states as degnerate
   RTIME   =   -0.100 relaxation time in fs
  (WPLASMAI=    0.000 imaginary part of plasma frequency in eV, 0.658/RTIME)
   DFIELD  = 0.0000000 0.0000000 0.0000000 field for delta impulse in time
 
  Optional k-point grid parameters
   LKPOINTS_OPT  =     F    use optional k-point grid
   KPOINTS_OPT_MODE=     1    mode for optional k-point grid
 
 Orbital magnetization related:
   ORBITALMAG=     F  switch on orbital magnetization
   LCHIMAG   =     F  perturbation theory with respect to B field
   DQ        =  0.001000  dq finite difference perturbation B field
   LLRAUG    =     F  two centre corrections for induced B field



--------------------------------------------------------------------------------------------------------


 Static calculation
 charge density and potential will be updated during run
 non-spin polarized calculation
 RMM-DIIS sequential band-by-band and
  variant of blocked Davidson during initial phase
 perform sub-space diagonalisation
    before iterative eigenvector-optimisation
 modified Broyden-mixing scheme, WC =      100.0
 initial mixing is a Kerker type mixing with AMIX =  0.4000 and BMIX =      1.0000
 Hartree-type preconditioning will be used
 using additional bands           50
 real space projection scheme for non local part
 use partial core corrections
 calculate Harris-corrections to forces 
   (improved forces if not selfconsistent)
 use gradient corrections 
 use of overlap-Matrix (Vanderbilt PP)
 Gauss-broadening in eV      SIGMA  =   0.10


--------------------------------------------------------------------------------------------------------


  energy-cutoff  :      530.00
  volume of cell :     1814.20
      direct lattice vectors                 reciprocal lattice vectors
     9.284262000  0.000000000  0.000000000     0.107709153  0.000000000  0.000000000
     0.000000000 10.720542000  0.000000000     0.000000000  0.093278866  0.000000000
     0.000000000  0.000000000 18.227242000     0.000000000  0.000000000  0.054862935

  length of vectors
     9.284262000 10.720542000 18.227242000     0.107709153  0.093278866  0.054862935


 
 k-points in units of 2pi/SCALE and weight: K-Spacing Value to Generate K-Mesh: 0.03
   0.00000000  0.00000000  0.00000000       0.083
   0.02692729  0.00000000  0.00000000       0.167
   0.05385458  0.00000000  0.00000000       0.083
   0.00000000  0.03109296  0.00000000       0.167
   0.02692729  0.03109296  0.00000000       0.167
   0.02692729 -0.03109296  0.00000000       0.167
   0.05385458  0.03109296  0.00000000       0.167
 
 k-points in reciprocal lattice and weights: K-Spacing Value to Generate K-Mesh: 0.03
   0.00000000  0.00000000  0.00000000       0.083
   0.25000000  0.00000000  0.00000000       0.167
   0.50000000  0.00000000  0.00000000       0.083
   0.00000000  0.33333333  0.00000000       0.167
   0.25000000  0.33333333  0.00000000       0.167
   0.25000000 -0.33333333  0.00000000       0.167
   0.50000000  0.33333333  0.00000000       0.167
 
 position of ions in fractional coordinates (direct lattice) 
   0.00000000  0.00000000  0.31213000
   0.16666700  0.25000000  0.31213000
   0.99992673  0.33323298  0.43884839
   0.16665035  0.08325975  0.43848665
   0.00000000  0.16666600  0.03482200
   0.16666700  0.41666600  0.03482200
   0.00000000  0.33333300  0.17351800
   0.16666700  0.08333300  0.17351800
   0.33333300  0.00000000  0.31213000
   0.50000000  0.25000000  0.31213000
   0.33362440  0.33370797  0.44051825
   0.50008762  0.08334724  0.43823129
   0.33333300  0.16666600  0.03482200
   0.50000000  0.41666600  0.03482200
   0.33333300  0.33333400  0.17351800
   0.50000000  0.08333300  0.17351800
   0.66666700  0.00000000  0.31213000
   0.83333300  0.25000000  0.31213000
   0.66648616  0.33361019  0.43884707
   0.83326405  0.08329468  0.43863455
   0.66666700  0.16666600  0.03482200
   0.83333300  0.41666600  0.03482200
   0.66666700  0.33333300  0.17351800
   0.83333300  0.08333300  0.17351800
   0.00000000  0.50000000  0.31213000
   0.16666700  0.75000000  0.31213000
   0.99992245  0.83343727  0.43855608
   0.16709934  0.58341887  0.44352706
   0.00000000  0.66666600  0.03482200
   0.16666700  0.91666600  0.03482200
   0.00000000  0.83333300  0.17351800
   0.16666700  0.58333300  0.17351800
   0.33333300  0.50000000  0.31213000
   0.50000000  0.75000000  0.31213000
   0.33358559  0.83300480  0.44012312
   0.50008656  0.58332140  0.44887516
   0.33333300  0.66666600  0.03482200
   0.50000000  0.91666600  0.03482200
   0.33333300  0.83333300  0.17351800
   0.50000000  0.58333300  0.17351800
   0.66666700  0.50000000  0.31213000
   0.83333300  0.75000000  0.31213000
   0.66648321  0.83302598  0.43891674
   0.83289244  0.58336634  0.43918461
   0.66666700  0.66666600  0.03482200
   0.83333300  0.91666600  0.03482200
   0.66666700  0.83333300  0.17351800
   0.83333300  0.58333300  0.17351800
   0.49776179  0.58355509  0.53064896
   0.00000000  0.00000000  0.00000000
   0.16666700  0.25000000  0.00000000
   0.00000000  0.00000000  0.41654900
   0.16666700  0.25000000  0.41654900
   0.00000000  0.16666600  0.13894900
   0.16666700  0.41666600  0.13894900
   0.00000000  0.33333300  0.27764900
   0.16666700  0.08333300  0.27764900
   0.33333300  0.00000000  0.00000000
   0.50000000  0.25000000  0.00000000
   0.33333300  0.00000000  0.41654900
   0.50000000  0.25000000  0.41654900
   0.33333300  0.16666600  0.13894900
   0.50000000  0.41666600  0.13894900
   0.33333300  0.33333400  0.27764900
   0.50000000  0.08333300  0.27764900
   0.66666700  0.00000000  0.00000000
   0.83333300  0.25000000  0.00000000
   0.66666700  0.00000000  0.41654900
   0.83333300  0.25000000  0.41654900
   0.66666700  0.16666600  0.13894900
   0.83333300  0.41666600  0.13894900
   0.66666700  0.33333300  0.27764900
   0.83333300  0.08333300  0.27764900
   0.00000000  0.50000000  0.00000000
   0.16666700  0.75000000  0.00000000
   0.00000000  0.50000000  0.41654900
   0.16666700  0.75000000  0.41654900
   0.00000000  0.66666600  0.13894900
   0.16666700  0.91666600  0.13894900
   0.00000000  0.83333300  0.27764900
   0.16666700  0.58333300  0.27764900
   0.33333300  0.50000000  0.00000000
   0.50000000  0.75000000  0.00000000
   0.33333300  0.50000000  0.41654900
   0.50000000  0.75000000  0.41654900
   0.33333300  0.66666600  0.13894900
   0.50000000  0.91666600  0.13894900
   0.33333300  0.83333300  0.27764900
   0.50000000  0.58333300  0.27764900
   0.66666700  0.50000000  0.00000000
   0.83333300  0.75000000  0.00000000
   0.66666700  0.50000000  0.41654900
   0.83333300  0.75000000  0.41654900
   0.66666700  0.66666600  0.13894900
   0.83333300  0.91666600  0.13894900
   0.66666700  0.83333300  0.27764900
   0.83333300  0.58333300  0.27764900
   0.24069789  0.57641217  0.59200995
 
 position of ions in cartesian coordinates  (Angst):
   0.00000000  0.00000000  5.68926905
   1.54738009  2.68013550  5.68926905
   9.28358179  3.57243821  7.99899579
   1.54722547  0.89258960  7.99240230
   0.00000000  1.78674985  0.63470902
   1.54738009  4.46688535  0.63470902
   0.00000000  3.57351043  3.16275458
   1.54738009  0.89337493  3.16275458
   3.09475091  0.00000000  5.68926905
   4.64213100  2.68013550  5.68926905
   3.09745629  3.57753031  8.02943270
   4.64294453  0.89352758  7.98774776
   3.09475091  1.78674985  0.63470902
   4.64213100  4.46688535  0.63470902
   3.09475091  3.57352115  3.16275458
   4.64213100  0.89337493  3.16275458
   6.18951109  0.00000000  5.68926905
   7.73688191  2.68013550  5.68926905
   6.18783212  3.57648202  7.99897169
   7.73624171  0.89296408  7.99509816
   6.18951109  1.78674985  0.63470902
   7.73688191  4.46688535  0.63470902
   6.18951109  3.57351043  3.16275458
   7.73688191  0.89337493  3.16275458
   0.00000000  5.36027100  5.68926905
   1.54738009  8.04040650  5.68926905
   9.28354197  8.93489927  7.99366773
   1.55139402  6.25456648  8.08427506
   0.00000000  7.14702085  0.63470902
   1.54738009  9.82715635  0.63470902
   0.00000000  8.93378143  3.16275458
   1.54738009  6.25364593  3.16275458
   3.09475091  5.36027100  5.68926905
   4.64213100  8.04040650  5.68926905
   3.09709602  8.93026294  8.02223067
   4.64293467  6.25352161  8.18175622
   3.09475091  7.14702085  0.63470902
   4.64213100  9.82715635  0.63470902
   3.09475091  8.93378143  3.16275458
   4.64213100  6.25364593  3.16275458
   6.18951109  5.36027100  5.68926905
   7.73688191  8.04040650  5.68926905
   6.18780477  8.93048995  8.00024155
   7.73279159  6.25400335  8.00512414
   6.18951109  7.14702085  0.63470902
   7.73688191  9.82715635  0.63470902
   6.18951109  8.93378143  3.16275458
   7.73688191  6.25364593  3.16275458
   4.62135089  6.25602689  9.67226706
   0.00000000  0.00000000  0.00000000
   1.54738009  2.68013550  0.00000000
   0.00000000  0.00000000  7.59253943
   1.54738009  2.68013550  7.59253943
   0.00000000  1.78674985  2.53265705
   1.54738009  4.46688535  2.53265705
   0.00000000  3.57351043  5.06077551
   1.54738009  0.89337493  5.06077551
   3.09475091  0.00000000  0.00000000
   4.64213100  2.68013550  0.00000000
   3.09475091  0.00000000  7.59253943
   4.64213100  2.68013550  7.59253943
   3.09475091  1.78674985  2.53265705
   4.64213100  4.46688535  2.53265705
   3.09475091  3.57352115  5.06077551
   4.64213100  0.89337493  5.06077551
   6.18951109  0.00000000  0.00000000
   7.73688191  2.68013550  0.00000000
   6.18951109  0.00000000  7.59253943
   7.73688191  2.68013550  7.59253943
   6.18951109  1.78674985  2.53265705
   7.73688191  4.46688535  2.53265705
   6.18951109  3.57351043  5.06077551
   7.73688191  0.89337493  5.06077551
   0.00000000  5.36027100  0.00000000
   1.54738009  8.04040650  0.00000000
   0.00000000  5.36027100  7.59253943
   1.54738009  8.04040650  7.59253943
   0.00000000  7.14702085  2.53265705
   1.54738009  9.82715635  2.53265705
   0.00000000  8.93378143  5.06077551
   1.54738009  6.25364593  5.06077551
   3.09475091  5.36027100  0.00000000
   4.64213100  8.04040650  0.00000000
   3.09475091  5.36027100  7.59253943
   4.64213100  8.04040650  7.59253943
   3.09475091  7.14702085  2.53265705
   4.64213100  9.82715635  2.53265705
   3.09475091  8.93378143  5.06077551
   4.64213100  6.25364593  5.06077551
   6.18951109  5.36027100  0.00000000
   7.73688191  8.04040650  0.00000000
   6.18951109  5.36027100  7.59253943
   7.73688191  8.04040650  7.59253943
   6.18951109  7.14702085  2.53265705
   7.73688191  9.82715635  2.53265705
   6.18951109  8.93378143  5.06077551
   7.73688191  6.25364593  5.06077551
   2.23470227  6.17945091 10.79070871
 


--------------------------------------------------------------------------------------------------------


 k-point   1 :   0.0000 0.0000 0.0000  plane waves:   50331
 k-point   2 :   0.2500 0.0000 0.0000  plane waves:   50277
 k-point   3 :   0.5000 0.0000 0.0000  plane waves:   50294
 k-point   4 :   0.0000 0.3333 0.0000  plane waves:   50286
 k-point   5 :   0.2500 0.3333 0.0000  plane waves:   50262
 k-point   6 :   0.2500-0.3333 0.0000  plane waves:   50262
 k-point   7 :   0.5000 0.3333 0.0000  plane waves:   50250

 maximum and minimum number of plane-waves per node :     50331    50250

 maximum number of plane-waves:     50331
 maximum index in each direction: 
   IXMAX=   17   IYMAX=   20   IZMAX=   34
   IXMIN=  -17   IYMIN=  -20   IZMIN=  -34


 serial   3D FFT for wavefunctions
 parallel 3D FFT for charge:
    minimum data exchange during FFTs selected (reduces bandwidth)


 total amount of memory used by VASP MPI-rank0  1165664. kBytes
=======================================================================

   base      :      30000. kBytes
   nonlr-proj:      25512. kBytes
   fftplans  :     214856. kBytes
   grid      :     485542. kBytes
   one-center:        794. kBytes
   wavefun   :     408960. kBytes
 
     INWAV:  cpu time      0.0003: real time      0.0000
 Broyden mixing: mesh for mixing (old mesh)
   NGX = 35   NGY = 41   NGZ = 69
  (NGX  =140   NGY  =160   NGZ  =280)
  gives a total of  99015 points

 initial charge density was supplied:
 charge density of overlapping atoms calculated
 number of electron     400.0000000 magnetization 
 keeping initial charge density in first step


--------------------------------------------------------------------------------------------------------


 Maximum index for non-local projection operator         4318
 Maximum index for augmentation-charges        19518 (set IRDMAX)


--------------------------------------------------------------------------------------------------------


 First call to EWALD:  gamma=   0.145
 Maximum number of real-space cells 3x 3x 2
 Maximum number of reciprocal cells 2x 2x 4

    FEWALD:  cpu time      0.0190: real time      0.0095


--------------------------------------- Iteration      1(   1)  ---------------------------------------


    POTLOK:  cpu time      8.9774: real time      1.5190
    SETDIJ:  cpu time      0.9321: real time      0.1333
     EDDAV:  cpu time     46.8536: real time      6.7871
       DOS:  cpu time      0.0187: real time      0.0027
    --------------------------------------------
      LOOP:  cpu time     56.7823: real time      8.4422

 eigenvalue-minimisations  :  3500
 total energy-change (2. order) : 0.2231631E+04  (-0.1721892E+05)
 number of electron     400.0000000 magnetization 
 augmentation part      400.0000000 magnetization 

 Free energy of the ion-electron system (eV)
  ---------------------------------------------------
  alpha Z        PSCENC =       340.57291683
  Ewald energy   TEWEN  =     27070.34935530
  -Hartree energ DENC   =    -40172.85006855
  -exchange      EXHF   =         0.00000000
  -V(xc)+E(xc)   XCENC  =       303.91944896
  PAW double counting   =      4337.97084573    -3548.78544197
  entropy T*S    EENTRO =        -0.09126225
  eigenvalues    EBANDS =       455.99821597
  atomic energy  EATOM  =     13444.54662946
  Solvation  Ediel_sol  =         0.00000000
  ---------------------------------------------------
  free energy    TOTEN  =      2231.63063949 eV

  energy without entropy =     2231.72190174  energy(sigma->0) =     2231.67627061


--------------------------------------------------------------------------------------------------------




--------------------------------------- Iteration      1(   2)  ---------------------------------------


     EDDAV:  cpu time     56.7098: real time      8.1783
       DOS:  cpu time      0.0144: real time      0.0020
    --------------------------------------------
      LOOP:  cpu time     56.7239: real time      8.1803

 eigenvalue-minimisations  :  4514
 total energy-change (2. order) :-0.2698748E+04  (-0.2579946E+04)
 number of electron     400.0000000 magnetization 
 augmentation part      400.0000000 magnetization 

 Free energy of the ion-electron system (eV)
  ---------------------------------------------------
  alpha Z        PSCENC =       340.57291683
  Ewald energy   TEWEN  =     27070.34935530
  -Hartree energ DENC   =    -40172.85006855
  -exchange      EXHF   =         0.00000000
  -V(xc)+E(xc)   XCENC  =       303.91944896
  PAW double counting   =      4337.97084573    -3548.78544197
  entropy T*S    EENTRO =        -0.07706653
  eigenvalues    EBANDS =     -2242.76383970
  atomic energy  EATOM  =     13444.54662946
  Solvation  Ediel_sol  =         0.00000000
  ---------------------------------------------------
  free energy    TOTEN  =      -467.11722047 eV

  energy without entropy =     -467.04015394  energy(sigma->0) =     -467.07868720


--------------------------------------------------------------------------------------------------------




--------------------------------------- Iteration      1(   3)  ---------------------------------------


     EDDAV:  cpu time     55.5730: real time      7.9948
       DOS:  cpu time      0.0150: real time      0.0021
    --------------------------------------------
      LOOP:  cpu time     55.5880: real time      7.9970

 eigenvalue-minimisations  :  4360
 total energy-change (2. order) :-0.3138312E+03  (-0.3091854E+03)
 number of electron     400.0000000 magnetization 
 augmentation part      400.0000000 magnetization 

 Free energy of the ion-electron system (eV)
  ---------------------------------------------------
  alpha Z        PSCENC =       340.57291683
  Ewald energy   TEWEN  =     27070.34935530
  -Hartree energ DENC   =    -40172.85006855
  -exchange      EXHF   =         0.00000000
  -V(xc)+E(xc)   XCENC  =       303.91944896
  PAW double counting   =      4337.97084573    -3548.78544197
  entropy T*S    EENTRO =        -0.10761076
  eigenvalues    EBANDS =     -2556.56446673
  atomic energy  EATOM  =     13444.54662946
  Solvation  Ediel_sol  =         0.00000000
  ---------------------------------------------------
  free energy    TOTEN  =      -780.94839172 eV

  energy without entropy =     -780.84078096  energy(sigma->0) =     -780.89458634


--------------------------------------------------------------------------------------------------------




--------------------------------------- Iteration      1(   4)  ---------------------------------------


     EDDAV:  cpu time     60.5271: real time      8.7275
       DOS:  cpu time      0.0154: real time      0.0022
    --------------------------------------------
      LOOP:  cpu time     60.5426: real time      8.7297

 eigenvalue-minimisations  :  4848
 total energy-change (2. order) :-0.1707877E+02  (-0.1703008E+02)
 number of electron     400.0000000 magnetization 
 augmentation part      400.0000000 magnetization 

 Free energy of the ion-electron system (eV)
  ---------------------------------------------------
  alpha Z        PSCENC =       340.57291683
  Ewald energy   TEWEN  =     27070.34935530
  -Hartree energ DENC   =    -40172.85006855
  -exchange      EXHF   =         0.00000000
  -V(xc)+E(xc)   XCENC  =       303.91944896
  PAW double counting   =      4337.97084573    -3548.78544197
  entropy T*S    EENTRO =        -0.10971521
  eigenvalues    EBANDS =     -2573.64112761
  atomic energy  EATOM  =     13444.54662946
  Solvation  Ediel_sol  =         0.00000000
  ---------------------------------------------------
  free energy    TOTEN  =      -798.02715705 eV

  energy without entropy =     -797.91744184  energy(sigma->0) =     -797.97229945


--------------------------------------------------------------------------------------------------------




--------------------------------------- Iteration      1(   5)  ---------------------------------------


     EDDAV:  cpu time     60.7459: real time      8.7140
       DOS:  cpu time      0.0043: real time      0.0021
    CHARGE:  cpu time      1.4905: real time      0.5222
    MIXING:  cpu time      0.5488: real time      0.0791
    --------------------------------------------
      LOOP:  cpu time     62.7900: real time      9.3176

 eigenvalue-minimisations  :  4872
 total energy-change (2. order) :-0.5892350E+00  (-0.5886554E+00)
 number of electron     400.0000023 magnetization 
 augmentation part        0.5707371 magnetization 

 Broyden mixing:
  rms(total) = 0.50862E+01    rms(broyden)= 0.50854E+01
  rms(prec ) = 0.65222E+01
  weight for this iteration     100.00

 Free energy of the ion-electron system (eV)
  ---------------------------------------------------
  alpha Z        PSCENC =       340.57291683
  Ewald energy   TEWEN  =     27070.34935530
  -Hartree energ DENC   =    -40172.85006855
  -exchange      EXHF   =         0.00000000
  -V(xc)+E(xc)   XCENC  =       303.91944896
  PAW double counting   =      4337.97084573    -3548.78544197
  entropy T*S    EENTRO =        -0.10999691
  eigenvalues    EBANDS =     -2574.23008096
  atomic energy  EATOM  =     13444.54662946
  Solvation  Ediel_sol  =         0.00000000
  ---------------------------------------------------
  free energy    TOTEN  =      -798.61639210 eV

  energy without entropy =     -798.50639520  energy(sigma->0) =     -798.56139365


--------------------------------------------------------------------------------------------------------




--------------------------------------- Iteration      1(   6)  ---------------------------------------


    POTLOK:  cpu time      8.9592: real time      1.5027
    SETDIJ:  cpu time      0.6977: real time      0.0999
    EDDIAG:  cpu time      3.5214: real time      0.8160
  RMM-DIIS:  cpu time      7.9814: real time      3.5828
    ORTHCH:  cpu time      0.1232: real time      0.0625
       DOS:  cpu time      0.0039: real time      0.0019
    CHARGE:  cpu time      1.3674: real time      0.4836
    MIXING:  cpu time      0.6643: real time      0.0949
    --------------------------------------------
      LOOP:  cpu time     23.3184: real time      6.6442

 eigenvalue-minimisations  :  3963
 total energy-change (2. order) : 0.9550650E+02  (-0.2905789E+02)
 number of electron     400.0000021 magnetization 
 augmentation part       -3.1429156 magnetization 

 Broyden mixing:
  rms(total) = 0.26048E+01    rms(broyden)= 0.26035E+01
  rms(prec ) = 0.44166E+01
  weight for this iteration     100.00

 eigenvalues of (default mixing * dielectric matrix)
  average eigenvalue GAMMA=   0.8457
  0.8457

 Free energy of the ion-electron system (eV)
  ---------------------------------------------------
  alpha Z        PSCENC =       340.57291683
  Ewald energy   TEWEN  =     27070.34935530
  -Hartree energ DENC   =    -40709.49799600
  -exchange      EXHF   =         0.00000000
  -V(xc)+E(xc)   XCENC  =       338.71906521
  PAW double counting   =      5257.82218295    -4476.10359351
  entropy T*S    EENTRO =        -0.01028081
  eigenvalues    EBANDS =     -1969.50817290
  atomic energy  EATOM  =     13444.54662946
  Solvation  Ediel_sol  =         0.00000000
  ---------------------------------------------------
  free energy    TOTEN  =      -703.10989347 eV

  energy without entropy =     -703.09961266  energy(sigma->0) =     -703.10475306


--------------------------------------------------------------------------------------------------------




--------------------------------------- Iteration      1(   7)  ---------------------------------------


    POTLOK:  cpu time      8.9700: real time      1.5060
    SETDIJ:  cpu time      0.6995: real time      0.1011
    EDDIAG:  cpu time      3.4947: real time      0.8102
  RMM-DIIS:  cpu time      8.1209: real time      3.6526
    ORTHCH:  cpu time      0.1230: real time      0.0623
       DOS:  cpu time      0.0042: real time      0.0021
    CHARGE:  cpu time      1.4064: real time      0.4986
    MIXING:  cpu time      0.6593: real time      0.0947
    --------------------------------------------
      LOOP:  cpu time     23.4779: real time      6.7275

 eigenvalue-minimisations  :  4056
 total energy-change (2. order) : 0.8545260E+01  (-0.5454617E+01)
 number of electron     400.0000020 magnetization 
 augmentation part       -2.5259137 magnetization 

 Broyden mixing:
  rms(total) = 0.16249E+01    rms(broyden)= 0.16237E+01
  rms(prec ) = 0.30393E+01
  weight for this iteration     100.00

 eigenvalues of (default mixing * dielectric matrix)
  average eigenvalue GAMMA=   0.8455
  1.2527  0.4383

 Free energy of the ion-electron system (eV)
  ---------------------------------------------------
  alpha Z        PSCENC =       340.57291683
  Ewald energy   TEWEN  =     27070.34935530
  -Hartree energ DENC   =    -40750.03770399
  -exchange      EXHF   =         0.00000000
  -V(xc)+E(xc)   XCENC  =       343.24361723
  PAW double counting   =      5415.29644766    -4635.45004353
  entropy T*S    EENTRO =        -0.12106329
  eigenvalues    EBANDS =     -1922.96478891
  atomic energy  EATOM  =     13444.54662946
  Solvation  Ediel_sol  =         0.00000000
  ---------------------------------------------------
  free energy    TOTEN  =      -694.56463324 eV

  energy without entropy =     -694.44356995  energy(sigma->0) =     -694.50410159


--------------------------------------------------------------------------------------------------------




--------------------------------------- Iteration      1(   8)  ---------------------------------------


    POTLOK:  cpu time      9.0151: real time      1.5162
    SETDIJ:  cpu time      0.6316: real time      0.0906
    EDDIAG:  cpu time      3.5595: real time      0.8145
  RMM-DIIS:  cpu time      8.6912: real time      3.9392
    ORTHCH:  cpu time      0.1235: real time      0.0627
       DOS:  cpu time      0.0042: real time      0.0021
    CHARGE:  cpu time      1.3835: real time      0.4938
    MIXING:  cpu time      0.6862: real time      0.0981
    --------------------------------------------
      LOOP:  cpu time     24.0948: real time      7.0172

 eigenvalue-minimisations  :  4362
 total energy-change (2. order) : 0.6457881E+01  (-0.2682859E+01)
 number of electron     400.0000018 magnetization 
 augmentation part       -3.9909573 magnetization 

 Broyden mixing:
  rms(total) = 0.12580E+01    rms(broyden)= 0.12573E+01
  rms(prec ) = 0.20920E+01
  weight for this iteration     100.00

 eigenvalues of (default mixing * dielectric matrix)
  average eigenvalue GAMMA=   0.9170
  1.2029  1.2029  0.3451

 Free energy of the ion-electron system (eV)
  ---------------------------------------------------
  alpha Z        PSCENC =       340.57291683
  Ewald energy   TEWEN  =     27070.34935530
  -Hartree energ DENC   =    -40893.25568840
  -exchange      EXHF   =         0.00000000
  -V(xc)+E(xc)   XCENC  =       351.19935644
  PAW double counting   =      5644.71367651    -4866.57320064
  entropy T*S    EENTRO =        -0.26529976
  eigenvalues    EBANDS =     -1779.39449817
  atomic energy  EATOM  =     13444.54662946
  Solvation  Ediel_sol  =         0.00000000
  ---------------------------------------------------
  free energy    TOTEN  =      -688.10675243 eV

  energy without entropy =     -687.84145267  energy(sigma->0) =     -687.97410255


--------------------------------------------------------------------------------------------------------




--------------------------------------- Iteration      1(   9)  ---------------------------------------


    POTLOK:  cpu time      8.9767: real time      1.5041
    SETDIJ:  cpu time      0.7486: real time      0.1069
    EDDIAG:  cpu time      3.4879: real time      0.8141
  RMM-DIIS:  cpu time      8.4139: real time      3.8051
    ORTHCH:  cpu time      0.1230: real time      0.0623
       DOS:  cpu time      0.0042: real time      0.0021
    CHARGE:  cpu time      1.3871: real time      0.4956
    MIXING:  cpu time      0.6802: real time      0.0978
    --------------------------------------------
      LOOP:  cpu time     23.8215: real time      6.8881

 eigenvalue-minimisations  :  4188
 total energy-change (2. order) :-0.2840298E+00  (-0.5261089E+00)
 number of electron     400.0000018 magnetization 
 augmentation part       -3.3822364 magnetization 

 Broyden mixing:
  rms(total) = 0.10868E+01    rms(broyden)= 0.10860E+01
  rms(prec ) = 0.18620E+01
  weight for this iteration     100.00

 eigenvalues of (default mixing * dielectric matrix)
  average eigenvalue GAMMA=   1.0602
  1.7891  1.7891  0.4299  0.2329

 Free energy of the ion-electron system (eV)
  ---------------------------------------------------
  alpha Z        PSCENC =       340.57291683
  Ewald energy   TEWEN  =     27070.34935530
  -Hartree energ DENC   =    -40887.94853922
  -exchange      EXHF   =         0.00000000
  -V(xc)+E(xc)   XCENC  =       350.68268461
  PAW double counting   =      5645.12933793    -4867.20098631
  entropy T*S    EENTRO =        -0.25568133
  eigenvalues    EBANDS =     -1784.26649946
  atomic energy  EATOM  =     13444.54662946
  Solvation  Ediel_sol  =         0.00000000
  ---------------------------------------------------
  free energy    TOTEN  =      -688.39078219 eV

  energy without entropy =     -688.13510086  energy(sigma->0) =     -688.26294152


--------------------------------------------------------------------------------------------------------




--------------------------------------- Iteration      1(  10)  ---------------------------------------


    POTLOK:  cpu time      9.0355: real time      1.5198
    SETDIJ:  cpu time      0.6270: real time      0.0899
    EDDIAG:  cpu time      3.5455: real time      0.8119
  RMM-DIIS:  cpu time      8.2271: real time      3.7059
    ORTHCH:  cpu time      0.1231: real time      0.0625
       DOS:  cpu time      0.0050: real time      0.0025
    CHARGE:  cpu time      1.3804: real time      0.4936
    MIXING:  cpu time      0.6961: real time      0.0995
    --------------------------------------------
      LOOP:  cpu time     23.6396: real time      6.7856

 eigenvalue-minimisations  :  4113
 total energy-change (2. order) :-0.7671764E+00  (-0.3340250E+00)
 number of electron     400.0000019 magnetization 
 augmentation part       -2.9932343 magnetization 

 Broyden mixing:
  rms(total) = 0.11103E+01    rms(broyden)= 0.11101E+01
  rms(prec ) = 0.25124E+01
  weight for this iteration     100.00

 eigenvalues of (default mixing * dielectric matrix)
  average eigenvalue GAMMA=   1.0081
  2.3618  1.3898  0.6528  0.3636  0.2726

 Free energy of the ion-electron system (eV)
  ---------------------------------------------------
  alpha Z        PSCENC =       340.57291683
  Ewald energy   TEWEN  =     27070.34935530
  -Hartree energ DENC   =    -40907.92363298
  -exchange      EXHF   =         0.00000000
  -V(xc)+E(xc)   XCENC  =       350.75699484
  PAW double counting   =      5663.81197174    -4886.31165897
  entropy T*S    EENTRO =        -0.13303881
  eigenvalues    EBANDS =     -1764.82749603
  atomic energy  EATOM  =     13444.54662946
  Solvation  Ediel_sol  =         0.00000000
  ---------------------------------------------------
  free energy    TOTEN  =      -689.15795863 eV

  energy without entropy =     -689.02491982  energy(sigma->0) =     -689.09143922


--------------------------------------------------------------------------------------------------------




--------------------------------------- Iteration      1(  11)  ---------------------------------------


    POTLOK:  cpu time      8.9841: real time      1.5070
    SETDIJ:  cpu time      0.7954: real time      0.1136
    EDDIAG:  cpu time      3.4468: real time      0.8130
  RMM-DIIS:  cpu time      9.1659: real time      4.1822
    ORTHCH:  cpu time      0.1226: real time      0.0623
       DOS:  cpu time      0.0041: real time      0.0021
    CHARGE:  cpu time      1.3918: real time      0.4959
    MIXING:  cpu time      0.7199: real time      0.1029
    --------------------------------------------
      LOOP:  cpu time     24.6306: real time      7.2789

 eigenvalue-minimisations  :  4591
 total energy-change (2. order) : 0.3377167E+01  (-0.7178942E-01)
 number of electron     400.0000019 magnetization 
 augmentation part       -3.3525771 magnetization 

 Broyden mixing:
  rms(total) = 0.60888E+00    rms(broyden)= 0.60866E+00
  rms(prec ) = 0.10896E+01
[...]
  224              fftwav                                0.075402                   1500   6
  225                fft3d                                 0.062053                 1500   7
  226            rpromu_acc                            1.236935                      378   5
  227          m_sumb_d                              0.014033                          1   4
  228        fordep                                0.346732                            1   3
  229          setdij_                               0.346682                          6   4
  230        setdij_                               1.156223                           20   3
  231        set_dd_magatom                        0.000004                            1   3
  232        set_dd_paw                            0.033611                            1   3
  233          m_sumb_d                              0.008241                          7   4
  234        strkin                                0.022830                            1   3
  235          m_sumb_d                              0.000899                          1   4
  236        strelo                                0.021299                            1   3
  237        strnlr                                4.684813                            1   3
  238          rspher_all                            0.361315                          9   4
  239          phaser                                0.252271                         18   4
  240          rpro_isp                              3.981631                         18   4
  241            fftwav_mpi                            0.234745                     4500   5
  242              fftwav                                0.228530                   4500   6
  243                fft3d                                 0.187937                 4500   7
  244            rpromu_acc                            3.730161                     1134   5
  245          m_sumb_d                              0.051650                          9   4
  246        fft3d_mpi                             0.402779                           11   3
  247          fftbrc_mpi                            0.329868                         11   4
  248            fftbas_plan_mpi                       0.329851                       11   5
  249              dfftw_execute                         0.210932                     33   6
  250              map_forward                           0.053982                     10   6
  251                map_scatter                           0.031576                    5   7
  252              map_backward                          0.063578                     12   6
  253                map_gather                            0.041998                    6   7
  254        ggaall_grid                           0.231111                            1   3
  255        forhar                                0.474425                            2   3
  256        strehar                               0.011736                            1   3
  257        chggra                                0.043456                            1   3
  258          fft3d_mpi                             0.034046                          3   4
  259            fftbrc_mpi                            0.031106                        3   5
  260              fftbas_plan_mpi                       0.031105                      3   6
  261                map_forward                           0.000054                    4   7
  262                  map_scatter                           0.000007                  2   8
  263                map_backward                          0.000014                    2   7
  264                  map_gather                            0.000004                  1   8
  265          pothar                                0.001166                          1   4
  266        brmix                                 0.300346                            1   3
  267          brpre                                 0.001292                          1   4
  268          setg0                                 0.048951                          1   4
  269          broyd                                 0.211975                          1   4
  270            brget                                 0.015037                      199   5
  271            brsav                                 0.011710                       43   5
  272          m_bcast_z                             0.021859                          1   4
  273          m_bcast_d                             0.000461                          1   4
  274        m_bcast_d                             0.000036                            2   3
  275      potlok                                1.521150                              1   2
  276        fft3d_mpi                             0.445056                           13   3
  277          fftbrc_mpi                            0.361474                         13   4
  278            fftbas_plan_mpi                       0.361454                       13   5
  279              dfftw_execute                         0.231802                     39   6
  280              map_forward                           0.064633                     14   6
  281                map_scatter                           0.037668                    7   7
  282              map_backward                          0.063573                     12   6
  283                map_gather                            0.041946                    6   7
  284        ggaall_grid                           0.231412                            1   3
  285        pothar                                0.038737                            1   3
  286      potlok_metagga                        0.000001                              1   2
  287      set_dd_magatom                        0.000005                              1   2
  288      set_dd_paw                            0.025421                              1   2
  289        m_sumb_d                              0.000167                            7   3
  290      densta                                0.001927                              1   2
  291        m_sumb_d                              0.000140                           40   3
 
 Flat profile
 ============
 
             routine name                   CPU           calls
 ---------------------------------------------------------------
 i2                                     54.903451       13117
 hamiltmu                               42.815062       14252
 potlok                                 31.872897          40
 eddiag                                 28.422105          38
 eddav                                  27.718140           5
 m_sumb_d                               19.181370        2331
 newband                                18.261019       14338
 total_time                             14.470721           1
 rpromu_acc                             14.287787       15570
 i3                                     14.102446       13117
 dfftw_execute                          10.419717        1830
 ggaall_grid                             9.544295          41
 fft3d                                   8.074931      207561
 racc0mu_acc                             4.280112       14252
 setdij_                                 3.876097          67
 fft3d_mpi                               3.870646       80441
 raccmu_                                 3.645686       14252
 augmentation_charge                     3.508484          39
 orth1                                   3.306704        3787
 cnorma                                  3.220254      210915
 w1_gemv                                 2.785884      360584
 broyd                                   2.617343          39
 choleski                                2.370540          78
 map_gather                              2.045231         325
 eccp                                    1.992748       91805
 setg0                                   1.847004          40
 phaser                                  1.589458         112
 w1_copy                                 1.575251      182483
 map_scatter                             1.562105         288
 pothar                                  1.551114          41
 w1_dscal                                1.509261      150693
 m_bcast_z                               1.255803          85
 w1_gaxpy                                1.190564      132030
 lapack                                  1.140005        1135
 map_forward                             1.107643         576
 overl_mu                                1.074246       14252
 map_backward                            1.048292         650
 set_dd_paw                              1.034362          41
 fftwav                                  0.989726      127733
 w1_dot                                  0.900729       18647
 w1_daxpy                                0.822251      103318
 lincom                                  0.746664         164
 overl1                                  0.696903       90146
 brmix                                   0.607114          39
 apply_precond                           0.547916      156995
 elmin                                   0.546252           1
 rspher_all                              0.527184          14
 force_and_stress                        0.521024           1
 init_hip                                0.504435           1
 forhar                                  0.474425           2
 stufak                                  0.350387           1
 orthch                                  0.348390          39
 kinhamil                                0.338145       79828
 vhamil                                  0.334867       79828
 eccp_nl                                 0.319055      140610
 zhegv                                   0.317603       33012
 fftext_mpi                              0.317583       79828
 forloc                                  0.315115           1
 brget                                   0.304622        4050
 set_charge                              0.296134          39
 eddrmm                                  0.271048          38
 brsav                                   0.225679         943
 depsum                                  0.206686          39
 fftwav_mpi                              0.189507      127733
 setup_precond                           0.154146       21500
 fftbas_plan_mpi                         0.149143         613
 soft_charge                             0.137464          39
 overl                                   0.104947       15286
 densta                                  0.079533          44
 proall                                  0.068926           1
 ggemm                                   0.061376        1455
 brpre                                   0.050349          39
 pw_charge                               0.048540       16443
 strnlr                                  0.037946           1
 i1                                      0.027099       13117
 rpro_isp                                0.023190          26
 strkin                                  0.021931           1
 strelo                                  0.021299           1
 hip_hipfft_makeplan                     0.020970           6
 m_bcast_d                               0.018001          45
 hamilt_local                            0.017467       19000
 fft_gq                                  0.016854          39
 w1_projall                              0.012705       13932
 fornlr                                  0.012661           1
 inisym                                  0.012139           1
 brgrid                                  0.012110           1
 truncate_high_frequency_w1              0.011869       82328
 strehar                                 0.011736           1
 chggra                                  0.008244           1
 rsp                                     0.007154           1
 fewald                                  0.001530           1
 fftbrc_mpi                              0.000831         613
 rcp                                     0.000533           1
 hip_init_hipblas                        0.000316           1
 vectorpot                               0.000186          40
 set_dd_magatom                          0.000167          41
 hip_init_rocsolver                      0.000070           1
 crpa_reader                             0.000065           1
 shift_bands_between_low_high            0.000058          76
 fordep                                  0.000050           1
 potlok_metagga                          0.000029          40
 posmap                                  0.000020           2
 hip_hipfft_makeplans                    0.000006           3
 rotate_active_occupied_orbital          0.000006           1
 redis_pw_over_bands                     0.000000           1
 ---------------------------------------------------------------
  summed up times    362.249883890152     
 
 Accumulative profile
 ====================
 
             routine name                   CPU           calls
 ---------------------------------------------------------------
 total_time                            362.249884           1
 elmin                                 329.885212           1
 eddrmm                                166.820216          38
 i2                                     64.738134       13117
 potlok                                 60.653423          40
 hamiltmu                               54.931065       14252
 eddav                                  40.398025           5
 eddiag                                 30.846315          38
 fft3d_mpi                              23.212393       80441
 i3                                     21.356451       13117
 newband                                20.121848       14338
 set_charge                             19.539540          39
 m_sumb_d                               19.181370        2331
 fftbrc_mpi                             16.332963         613
 fftbas_plan_mpi                        16.332132         613
 rpromu_acc                             14.287787       15570
 soft_charge                            14.015217          39
 force_and_stress                       10.633014           1
 dfftw_execute                          10.419717        1830
 ggaall_grid                             9.544295          41
 raccmu_                                 9.000045       14252
 w1_projall                              8.904791       13932
 fft3d                                   8.074931      207561
 brmix                                   6.923486          39
 fftwav_mpi                              6.245378      127733
 rpro_isp                                6.101350          26
 fftwav                                  6.055872      127733
 orthch                                  5.985942          39
 augmentation_charge                     4.968874          39
 strnlr                                  4.684813           1
 racc0mu_acc                             4.280112       14252
 setdij_                                 3.876097          67
 kinhamil                                3.708067       79828
 cnorma                                  3.539308      210915
 w1_gemv                                 3.482788      360584
 fftext_mpi                              3.369922       79828
 orth1                                   3.306704        3787
 broyd                                   3.147644          39
 map_backward                            3.093523         650
 map_forward                             2.669749         576
 choleski                                2.370540          78
 map_gather                              2.045231         325
 eccp                                    1.992748       91805
 setg0                                   1.847004          40
 set_dd_paw                              1.845659          41
 phaser                                  1.589458         112
 w1_copy                                 1.575251      182483
 map_scatter                             1.562105         288
 pothar                                  1.551114          41
 fornlr                                  1.550186           1
 w1_dscal                                1.509261      150693
 m_bcast_z                               1.255803          85
 w1_gaxpy                                1.190564      132030
 lapack                                  1.140005        1135
 overl_mu                                1.074246       14252
 hamilt_local                            0.944442       19000
 w1_dot                                  0.900729       18647
 proall                                  0.898723           1
 w1_daxpy                                0.822251      103318
 lincom                                  0.746664         164
 overl1                                  0.696903       90146
 apply_precond                           0.547916      156995
 rspher_all                              0.527184          14
 init_hip                                0.504435           1
 forhar                                  0.474425           2
 i1                                      0.419135       13117
 stufak                                  0.350387           1
 fordep                                  0.346732           1
 vhamil                                  0.334867       79828
 eccp_nl                                 0.319055      140610
 zhegv                                   0.317603       33012
 forloc                                  0.315115           1
 fft_gq                                  0.314424          39
 brget                                   0.304622        4050
 depsum                                  0.259315          39
 brsav                                   0.225679         943
 setup_precond                           0.154146       21500
 overl                                   0.104947       15286
 densta                                  0.085405          44
 ggemm                                   0.061376        1455
 brpre                                   0.050349          39
 pw_charge                               0.048540       16443
 chggra                                  0.043456           1
 strkin                                  0.022830           1
 strelo                                  0.021299           1
 hip_hipfft_makeplans                    0.020976           3
 hip_hipfft_makeplan                     0.020970           6
 m_bcast_d                               0.018001          45
 inisym                                  0.012159           1
 brgrid                                  0.012110           1
 truncate_high_frequency_w1              0.011869       82328
 strehar                                 0.011736           1
 fewald                                  0.009435           1
 rsp                                     0.007154           1
 rcp                                     0.000533           1
 hip_init_hipblas                        0.000316           1
 vectorpot                               0.000186          40
 set_dd_magatom                          0.000167          41
 hip_init_rocsolver                      0.000070           1
 crpa_reader                             0.000065           1
 shift_bands_between_low_high            0.000058          76
 potlok_metagga                          0.000029          40
 posmap                                  0.000020           2
 rotate_active_occupied_orbital          0.000006           1
 redis_pw_over_bands                     0.000000           1
 ---------------------------------------------------------------
 
Profiling took   0.499291  0.295421  0.002914  0.002787 seconds
Profiling took   0.363688 seconds
