srun: ROUTE: split_hostlist: hl=e10r3n00 tree_width 0
 running on    4 total cores
 distrk:  each k-point on    1 cores,    4 groups
 distr:  one band on    1 cores,    1 groups
 HIP runtime initialized ...    4 DCUs will be used
 Created    4 streams on each DCU
 vasp.6.3.2 27Jun22 (build Mar 15 2023 15:45:48) complex                        
  
 POSCAR found type information on POSCAR C F SiK 
 POSCAR found :  4 types and      98 ions
 Reading from existing POTCAR
 scaLAPACK will be used selectively (only on CPU)
 Reading from existing POTCAR
 LDA part: xc-table for Pade appr. of Perdew
 POSCAR found type information on POSCAR C F SiK 
 POSCAR found :  4 types and      98 ions
 Optimize memory usage for KPAR
 POSCAR, INCAR and KPOINTS ok, starting setup
 FFT: planning ... GRIDC
 FFT: planning ... GRID_SOFT
 FFT: planning ... GRID
 WAVECAR not read
 entering main loop
       N       E                     dE             d eps       ncg     rms          rms(c)
DAV:   1     0.223163063949E+04    0.22316E+04   -0.17219E+05  3500   0.138E+03
DAV:   2    -0.467117220465E+03   -0.26987E+04   -0.25799E+04  4514   0.279E+02
DAV:   3    -0.780948391721E+03   -0.31383E+03   -0.30919E+03  4360   0.900E+01
DAV:   4    -0.798027157053E+03   -0.17079E+02   -0.17030E+02  4848   0.224E+01
DAV:   5    -0.798616392103E+03   -0.58924E+00   -0.58866E+00  4872   0.383E+00    0.509E+01
RMM:   6    -0.703109893470E+03    0.95506E+02   -0.29058E+02  3963   0.232E+01    0.260E+01
RMM:   7    -0.694564633237E+03    0.85453E+01   -0.54546E+01  4056   0.129E+01    0.162E+01
RMM:   8    -0.688106752430E+03    0.64579E+01   -0.26829E+01  4362   0.770E+00    0.126E+01
RMM:   9    -0.688390782189E+03   -0.28403E+00   -0.52611E+00  4188   0.368E+00    0.109E+01
RMM:  10    -0.689157958629E+03   -0.76718E+00   -0.33403E+00  4113   0.280E+00    0.111E+01
RMM:  11    -0.685780791567E+03    0.33772E+01   -0.71789E-01  4591   0.145E+00    0.609E+00
RMM:  12    -0.685613900403E+03    0.16689E+00   -0.21837E-01  5645   0.679E-01    0.551E+00
RMM:  13    -0.685174386874E+03    0.43951E+00   -0.52502E-01  4702   0.869E-01    0.281E+00
RMM:  14    -0.685124837964E+03    0.49549E-01   -0.16711E-01  4775   0.587E-01    0.232E+00
RMM:  15    -0.685027789829E+03    0.97048E-01   -0.76991E-02  4736   0.350E-01    0.212E+00
RMM:  16    -0.684945959342E+03    0.81830E-01   -0.11910E-01  4899   0.400E-01    0.241E+00
RMM:  17    -0.684858772769E+03    0.87187E-01   -0.92622E-02  4909   0.321E-01    0.223E+00
RMM:  18    -0.684844510289E+03    0.14262E-01   -0.13309E-01  5362   0.393E-01    0.248E+00
RMM:  19    -0.684817294356E+03    0.27216E-01   -0.37419E-02  5272   0.248E-01    0.205E+00
RMM:  20    -0.684808305275E+03    0.89891E-02   -0.24537E-02  5255   0.178E-01    0.182E+00
RMM:  21    -0.684789740283E+03    0.18565E-01   -0.53686E-02  5880   0.273E-01    0.883E-01
RMM:  22    -0.684798044134E+03   -0.83039E-02   -0.29634E-02  5218   0.215E-01    0.801E-01
RMM:  23    -0.684796531709E+03    0.15124E-02   -0.60815E-03  5556   0.111E-01    0.455E-01
RMM:  24    -0.684802393099E+03   -0.58614E-02   -0.34346E-03  5487   0.758E-02    0.533E-01
RMM:  25    -0.684806447155E+03   -0.40541E-02   -0.26689E-03  5459   0.732E-02    0.452E-01
RMM:  26    -0.684808949407E+03   -0.25023E-02   -0.19586E-03  5478   0.593E-02    0.273E-01
RMM:  27    -0.684811747600E+03   -0.27982E-02   -0.78934E-04  5838   0.416E-02    0.372E-01
RMM:  28    -0.684811862163E+03   -0.11456E-03   -0.59602E-04  5481   0.328E-02    0.150E-01
RMM:  29    -0.684812337015E+03   -0.47485E-03   -0.29195E-04  6069   0.226E-02    0.599E-02
RMM:  30    -0.684813185773E+03   -0.84876E-03   -0.19351E-04  5737   0.184E-02    0.432E-02
RMM:  31    -0.684813454757E+03   -0.26898E-03   -0.12596E-04  5756   0.131E-02    0.524E-02
RMM:  32    -0.684813773303E+03   -0.31855E-03   -0.10780E-04  5779   0.125E-02    0.597E-02
RMM:  33    -0.684813862641E+03   -0.89339E-04   -0.51777E-05  5473   0.765E-03    0.402E-02
RMM:  34    -0.684814033533E+03   -0.17089E-03   -0.37711E-05  5074   0.667E-03    0.304E-02
RMM:  35    -0.684814203616E+03   -0.17008E-03   -0.59312E-05  5551   0.794E-03    0.771E-03
RMM:  36    -0.684814264402E+03   -0.60787E-04   -0.27081E-05  4884   0.577E-03    0.159E-02
RMM:  37    -0.684814301837E+03   -0.37434E-04   -0.13402E-05  3738   0.404E-03    0.126E-02
RMM:  38    -0.684814316625E+03   -0.14789E-04   -0.82986E-06  3448   0.313E-03    0.971E-03
RMM:  39    -0.684814327667E+03   -0.11042E-04   -0.71487E-06  3540   0.333E-03    0.585E-03
RMM:  40    -0.684814330775E+03   -0.31081E-05   -0.38563E-06  3135   0.235E-03    0.397E-03
RMM:  41    -0.684814333503E+03   -0.27283E-05   -0.29294E-06  2909   0.185E-03    0.261E-03
RMM:  42    -0.684814334732E+03   -0.12284E-05   -0.23214E-06  2543   0.161E-03    0.338E-03
 num prob RMM:  43    -0.684814335110E+03   -0.37807E-06   -0.18669E-06  2091   0.137E-03
   1 F= -.68481434E+03 E0= -.68462087E+03  d E =-.386938E+00
 writing wavefunctions
 PROFILE, used timers:     291
