<?xml version="1.0" encoding="ISO-8859-1"?>
<modeling>
 <generator>
  <i name="program" type="string">vasp </i>
  <i name="version" type="string">6.3.2  </i>
  <i name="subversion" type="string">27Jun22 (build Mar 15 2023 15:45:48) complex                          parallel </i>
  <i name="platform" type="string">LinuxIFC </i>
  <i name="date" type="string">2024 07 23 </i>
  <i name="time" type="string">08:38:54 </i>
 </generator>
 <incar>
  <i type="string" name="SYSTEM">ni3al</i>
  <i type="int" name="ISTART">     0</i>
  <i type="string" name="PREC">Accurate</i>
  <i type="string" name="ALGO">Fast</i>
  <i name="AMIN">      0.01000000</i>
  <i type="int" name="ICHARG">     2</i>
  <i type="int" name="NELM">   150</i>
  <i type="int" name="IBRION">     1</i>
  <i name="EDIFF">      0.00000100</i>
  <i name="EDIFFG">     -0.01000000</i>
  <i type="int" name="NSW">     0</i>
  <i type="int" name="ISIF">     2</i>
  <i name="ENCUT">    530.00000000</i>
  <i type="string" name="LREAL">Auto</i>
  <i type="int" name="ISMEAR">     0</i>
  <i name="SIGMA">      0.10000000</i>
  <i type="int" name="LMAXMIX">     4</i>
  <i type="logical" name="LWAVE"> T  </i>
  <i type="logical" name="LCHARG"> F  </i>
 </incar>
 <primitive_cell>
  <structure name="primitive_cell" >
   <crystal>
    <varray name="basis" >
     <v>       9.28426200       0.00000000       0.00000000 </v>
     <v>       0.00000000      10.72054200       0.00000000 </v>
     <v>       0.00000000       0.00000000      18.22724200 </v>
    </varray>
    <i name="volume">   1814.19969640 </i>
    <varray name="rec_basis" >
     <v>       0.10770915       0.00000000       0.00000000 </v>
     <v>       0.00000000       0.09327887       0.00000000 </v>
     <v>       0.00000000       0.00000000       0.05486294 </v>
    </varray>
   </crystal>
   <varray name="positions" >
    <v>       0.00000000       0.00000000       0.31213000 </v>
    <v>       0.16666700       0.25000000       0.31213000 </v>
    <v>       0.99992673       0.33323298       0.43884839 </v>
    <v>       0.16665035       0.08325975       0.43848665 </v>
    <v>       0.00000000       0.16666600       0.03482200 </v>
    <v>       0.16666700       0.41666600       0.03482200 </v>
    <v>       0.00000000       0.33333300       0.17351800 </v>
    <v>       0.16666700       0.08333300       0.17351800 </v>
    <v>       0.33333300       0.00000000       0.31213000 </v>
    <v>       0.50000000       0.25000000       0.31213000 </v>
    <v>       0.33362440       0.33370797       0.44051825 </v>
    <v>       0.50008762       0.08334724       0.43823129 </v>
    <v>       0.33333300       0.16666600       0.03482200 </v>
    <v>       0.50000000       0.41666600       0.03482200 </v>
    <v>       0.33333300       0.33333400       0.17351800 </v>
    <v>       0.50000000       0.08333300       0.17351800 </v>
    <v>       0.66666700       0.00000000       0.31213000 </v>
    <v>       0.83333300       0.25000000       0.31213000 </v>
    <v>       0.66648616       0.33361019       0.43884707 </v>
    <v>       0.83326405       0.08329468       0.43863455 </v>
    <v>       0.66666700       0.16666600       0.03482200 </v>
    <v>       0.83333300       0.41666600       0.03482200 </v>
    <v>       0.66666700       0.33333300       0.17351800 </v>
    <v>       0.83333300       0.08333300       0.17351800 </v>
    <v>       0.00000000       0.50000000       0.31213000 </v>
    <v>       0.16666700       0.75000000       0.31213000 </v>
    <v>       0.99992245       0.83343727       0.43855608 </v>
    <v>       0.16709934       0.58341887       0.44352706 </v>
    <v>       0.00000000       0.66666600       0.03482200 </v>
    <v>       0.16666700       0.91666600       0.03482200 </v>
    <v>       0.00000000       0.83333300       0.17351800 </v>
    <v>       0.16666700       0.58333300       0.17351800 </v>
    <v>       0.33333300       0.50000000       0.31213000 </v>
    <v>       0.50000000       0.75000000       0.31213000 </v>
    <v>       0.33358559       0.83300480       0.44012312 </v>
    <v>       0.50008656       0.58332140       0.44887516 </v>
    <v>       0.33333300       0.66666600       0.03482200 </v>
    <v>       0.50000000       0.91666600       0.03482200 </v>
    <v>       0.33333300       0.83333300       0.17351800 </v>
    <v>       0.50000000       0.58333300       0.17351800 </v>
    <v>       0.66666700       0.50000000       0.31213000 </v>
    <v>       0.83333300       0.75000000       0.31213000 </v>
    <v>       0.66648321       0.83302598       0.43891674 </v>
    <v>       0.83289244       0.58336634       0.43918461 </v>
    <v>       0.66666700       0.66666600       0.03482200 </v>
    <v>       0.83333300       0.91666600       0.03482200 </v>
    <v>       0.66666700       0.83333300       0.17351800 </v>
    <v>       0.83333300       0.58333300       0.17351800 </v>
    <v>       0.49776179       0.58355509       0.53064896 </v>
    <v>       0.00000000       0.00000000       0.00000000 </v>
    <v>       0.16666700       0.25000000       0.00000000 </v>
    <v>       0.00000000       0.00000000       0.41654900 </v>
    <v>       0.16666700       0.25000000       0.41654900 </v>
    <v>       0.00000000       0.16666600       0.13894900 </v>
    <v>       0.16666700       0.41666600       0.13894900 </v>
    <v>       0.00000000       0.33333300       0.27764900 </v>
    <v>       0.16666700       0.08333300       0.27764900 </v>
    <v>       0.33333300       0.00000000       0.00000000 </v>
    <v>       0.50000000       0.25000000       0.00000000 </v>
    <v>       0.33333300       0.00000000       0.41654900 </v>
    <v>       0.50000000       0.25000000       0.41654900 </v>
    <v>       0.33333300       0.16666600       0.13894900 </v>
    <v>       0.50000000       0.41666600       0.13894900 </v>
    <v>       0.33333300       0.33333400       0.27764900 </v>
    <v>       0.50000000       0.08333300       0.27764900 </v>
    <v>       0.66666700       0.00000000       0.00000000 </v>
    <v>       0.83333300       0.25000000       0.00000000 </v>
    <v>       0.66666700       0.00000000       0.41654900 </v>
    <v>       0.83333300       0.25000000       0.41654900 </v>
    <v>       0.66666700       0.16666600       0.13894900 </v>
    <v>       0.83333300       0.41666600       0.13894900 </v>
    <v>       0.66666700       0.33333300       0.27764900 </v>
    <v>       0.83333300       0.08333300       0.27764900 </v>
    <v>       0.00000000       0.50000000       0.00000000 </v>
    <v>       0.16666700       0.75000000       0.00000000 </v>
    <v>       0.00000000       0.50000000       0.41654900 </v>
    <v>       0.16666700       0.75000000       0.41654900 </v>
    <v>       0.00000000       0.66666600       0.13894900 </v>
    <v>       0.16666700       0.91666600       0.13894900 </v>
    <v>       0.00000000       0.83333300       0.27764900 </v>
    <v>       0.16666700       0.58333300       0.27764900 </v>
    <v>       0.33333300       0.50000000       0.00000000 </v>
    <v>       0.50000000       0.75000000       0.00000000 </v>
    <v>       0.33333300       0.50000000       0.41654900 </v>
    <v>       0.50000000       0.75000000       0.41654900 </v>
    <v>       0.33333300       0.66666600       0.13894900 </v>
    <v>       0.50000000       0.91666600       0.13894900 </v>
    <v>       0.33333300       0.83333300       0.27764900 </v>
    <v>       0.50000000       0.58333300       0.27764900 </v>
    <v>       0.66666700       0.50000000       0.00000000 </v>
    <v>       0.83333300       0.75000000       0.00000000 </v>
    <v>       0.66666700       0.50000000       0.41654900 </v>
    <v>       0.83333300       0.75000000       0.41654900 </v>
    <v>       0.66666700       0.66666600       0.13894900 </v>
    <v>       0.83333300       0.91666600       0.13894900 </v>
    <v>       0.66666700       0.83333300       0.27764900 </v>
    <v>       0.83333300       0.58333300       0.27764900 </v>
    <v>       0.24069789       0.57641217       0.59200995 </v>
   </varray>
  </structure>
  <varray name="primitive_index" >
   <v type="int" >        1 </v>
   <v type="int" >        2 </v>
   <v type="int" >        3 </v>
   <v type="int" >        4 </v>
   <v type="int" >        5 </v>
   <v type="int" >        6 </v>
   <v type="int" >        7 </v>
   <v type="int" >        8 </v>
   <v type="int" >        9 </v>
   <v type="int" >       10 </v>
   <v type="int" >       11 </v>
   <v type="int" >       12 </v>
   <v type="int" >       13 </v>
   <v type="int" >       14 </v>
   <v type="int" >       15 </v>
   <v type="int" >       16 </v>
   <v type="int" >       17 </v>
   <v type="int" >       18 </v>
   <v type="int" >       19 </v>
   <v type="int" >       20 </v>
   <v type="int" >       21 </v>
   <v type="int" >       22 </v>
   <v type="int" >       23 </v>
   <v type="int" >       24 </v>
   <v type="int" >       25 </v>
   <v type="int" >       26 </v>
   <v type="int" >       27 </v>
   <v type="int" >       28 </v>
   <v type="int" >       29 </v>
   <v type="int" >       30 </v>
   <v type="int" >       31 </v>
   <v type="int" >       32 </v>
   <v type="int" >       33 </v>
   <v type="int" >       34 </v>
   <v type="int" >       35 </v>
   <v type="int" >       36 </v>
   <v type="int" >       37 </v>
   <v type="int" >       38 </v>
   <v type="int" >       39 </v>
   <v type="int" >       40 </v>
   <v type="int" >       41 </v>
   <v type="int" >       42 </v>
   <v type="int" >       43 </v>
   <v type="int" >       44 </v>
   <v type="int" >       45 </v>
   <v type="int" >       46 </v>
   <v type="int" >       47 </v>
   <v type="int" >       48 </v>
   <v type="int" >       49 </v>
   <v type="int" >       50 </v>
   <v type="int" >       51 </v>
   <v type="int" >       52 </v>
   <v type="int" >       53 </v>
   <v type="int" >       54 </v>
   <v type="int" >       55 </v>
   <v type="int" >       56 </v>
   <v type="int" >       57 </v>
   <v type="int" >       58 </v>
   <v type="int" >       59 </v>
   <v type="int" >       60 </v>
   <v type="int" >       61 </v>
   <v type="int" >       62 </v>
   <v type="int" >       63 </v>
   <v type="int" >       64 </v>
   <v type="int" >       65 </v>
   <v type="int" >       66 </v>
   <v type="int" >       67 </v>
   <v type="int" >       68 </v>
   <v type="int" >       69 </v>
   <v type="int" >       70 </v>
   <v type="int" >       71 </v>
   <v type="int" >       72 </v>
   <v type="int" >       73 </v>
   <v type="int" >       74 </v>
   <v type="int" >       75 </v>
   <v type="int" >       76 </v>
   <v type="int" >       77 </v>
   <v type="int" >       78 </v>
   <v type="int" >       79 </v>
   <v type="int" >       80 </v>
   <v type="int" >       81 </v>
   <v type="int" >       82 </v>
   <v type="int" >       83 </v>
   <v type="int" >       84 </v>
   <v type="int" >       85 </v>
   <v type="int" >       86 </v>
   <v type="int" >       87 </v>
   <v type="int" >       88 </v>
   <v type="int" >       89 </v>
   <v type="int" >       90 </v>
   <v type="int" >       91 </v>
   <v type="int" >       92 </v>
   <v type="int" >       93 </v>
   <v type="int" >       94 </v>
   <v type="int" >       95 </v>
   <v type="int" >       96 </v>
   <v type="int" >       97 </v>
   <v type="int" >       98 </v>
  </varray>
 </primitive_cell>
 <kpoints>
  <generation param="Gamma">
   <v type="int" name="divisions">       4        3        1 </v>
   <v name="usershift">      0.00000000       0.00000000       0.00000000 </v>
   <v name="genvec1">      0.25000000       0.00000000       0.00000000 </v>
   <v name="genvec2">      0.00000000       0.33333333       0.00000000 </v>
   <v name="genvec3">      0.00000000       0.00000000       1.00000000 </v>
   <v name="shift">      0.00000000       0.00000000       0.00000000 </v>
  </generation>
  <varray name="kpointlist" >
   <v>       0.00000000       0.00000000       0.00000000 </v>
   <v>       0.25000000       0.00000000       0.00000000 </v>
   <v>       0.50000000       0.00000000       0.00000000 </v>
   <v>       0.00000000       0.33333333       0.00000000 </v>
   <v>       0.25000000       0.33333333       0.00000000 </v>
   <v>       0.25000000      -0.33333333       0.00000000 </v>
   <v>       0.50000000       0.33333333       0.00000000 </v>
  </varray>
  <varray name="weights" >
   <v>       0.08333333 </v>
   <v>       0.16666667 </v>
   <v>       0.08333333 </v>
   <v>       0.16666667 </v>
   <v>       0.16666667 </v>
   <v>       0.16666667 </v>
   <v>       0.16666667 </v>
  </varray>
 </kpoints>
 <parameters>
  <separator name="general" >
   <i type="string" name="SYSTEM">ni3al</i>
   <i type="logical" name="LCOMPAT"> F  </i>
  </separator>
  <separator name="electronic" >
   <i type="string" name="PREC">accura</i>
   <i name="ENMAX">    530.00000000</i>
   <i name="ENAUG">    644.87300000</i>
   <i name="EDIFF">      0.00000100</i>
   <i type="int" name="IALGO">    68</i>
   <i type="int" name="IWAVPR">    10</i>
   <i type="int" name="NBANDS">   250</i>
   <i type="int" name="NBANDSLOW">    -1</i>
   <i type="int" name="NBANDSHIGH">    -1</i>
   <i name="NELECT">    400.00000000</i>
   <i type="int" name="TURBO">     0</i>
   <i type="int" name="IRESTART">     0</i>
   <i type="int" name="NREBOOT">     0</i>
   <i type="int" name="NMIN">     0</i>
   <i name="EREF">      0.00000000</i>
   <separator name="electronic smearing" >
    <i type="int" name="ISMEAR">     0</i>
    <i name="SIGMA">      0.10000000</i>
    <i name="KSPACING">      0.50000000</i>
    <i type="logical" name="KGAMMA"> T  </i>
    <i type="logical" name="KBLOWUP"> T  </i>
   </separator>
   <separator name="electronic projectors" >
    <i type="logical" name="LREAL"> T  </i>
    <v name="ROPT">     -0.00025000     -0.00025000     -0.00025000     -0.00025000</v>
    <i type="int" name="LMAXPAW">  -100</i>
    <i type="int" name="LMAXMIX">     4</i>
    <i type="logical" name="NLSPLINE"> F  </i>
   </separator>
   <separator name="electronic startup" >
    <i type="int" name="ISTART">     0</i>
    <i type="int" name="ICHARG">     2</i>
    <i type="int" name="INIWAV">     1</i>
   </separator>
   <separator name="electronic spin" >
    <i type="int" name="ISPIN">     1</i>
    <i type="logical" name="LNONCOLLINEAR"> F  </i>
    <v name="MAGMOM">      1.00000000      1.00000000      1.00000000      1.00000000      1.00000000      1.00000000      1.00000000      1.00000000      1.00000000      1.00000000      1.00000000      1.00000000      1.00000000      1.00000000      1.00000000      1.00000000      1.00000000      1.00000000      1.00000000      1.00000000
      1.00000000      1.00000000      1.00000000      1.00000000      1.00000000      1.00000000      1.00000000      1.00000000      1.00000000      1.00000000      1.00000000      1.00000000      1.00000000      1.00000000      1.00000000      1.00000000      1.00000000      1.00000000      1.00000000      1.00000000
      1.00000000      1.00000000      1.00000000      1.00000000      1.00000000      1.00000000      1.00000000      1.00000000      1.00000000      1.00000000      1.00000000      1.00000000      1.00000000      1.00000000      1.00000000      1.00000000      1.00000000      1.00000000      1.00000000      1.00000000
      1.00000000      1.00000000      1.00000000      1.00000000      1.00000000      1.00000000      1.00000000      1.00000000      1.00000000      1.00000000      1.00000000      1.00000000      1.00000000      1.00000000      1.00000000      1.00000000      1.00000000      1.00000000      1.00000000      1.00000000
      1.00000000      1.00000000      1.00000000      1.00000000      1.00000000      1.00000000      1.00000000      1.00000000      1.00000000      1.00000000      1.00000000      1.00000000      1.00000000      1.00000000      1.00000000      1.00000000      1.00000000      1.00000000</v>
    <i name="NUPDOWN">     -1.00000000</i>
    <i type="logical" name="LSORBIT"> F  </i>
    <v name="SAXIS">      0.00000000      0.00000000      1.00000000</v>
    <i type="logical" name="LSPIRAL"> F  </i>
    <v name="QSPIRAL">      0.00000000      0.00000000      0.00000000</v>
    <i type="logical" name="LZEROZ"> F  </i>
   </separator>
   <separator name="electronic exchange-correlation" >
    <i type="logical" name="LASPH"> F  </i>
    <i type="logical" name="LMETAGGA"> F  </i>
   </separator>
   <separator name="electronic convergence" >
    <i type="int" name="NELM">   150</i>
    <i type="int" name="NELMDL">    -5</i>
    <i type="int" name="NELMIN">     2</i>
    <i name="ENINI">    530.00000000</i>
    <separator name="electronic convergence detail" >
     <i type="logical" name="LDIAG"> T  </i>
     <i type="logical" name="LSUBROT"> F  </i>
     <i name="WEIMIN">      0.00000000</i>
     <i name="EBREAK">      0.00000000</i>
     <i name="DEPER">      0.30000000</i>
     <i type="int" name="NRMM">     4</i>
     <i name="TIME">      0.40000000</i>
    </separator>
   </separator>
   <separator name="electronic mixer" >
    <i name="AMIX">      0.40000000</i>
    <i name="BMIX">      1.00000000</i>
    <i name="AMIN">      0.01000000</i>
    <i name="AMIX_MAG">      1.60000000</i>
    <i name="BMIX_MAG">      1.00000000</i>
    <separator name="electronic mixer details" >
     <i type="int" name="IMIX">     4</i>
     <i type="logical" name="MIXFIRST"> F  </i>
     <i type="int" name="MAXMIX">   -45</i>
     <i name="WC">    100.00000000</i>
     <i type="int" name="INIMIX">     1</i>
     <i type="int" name="MIXPRE">     1</i>
     <i type="int" name="MREMOVE">     5</i>
    </separator>
   </separator>
   <separator name="electronic dipolcorrection" >
    <i type="logical" name="LDIPOL"> F  </i>
    <i type="logical" name="LMONO"> F  </i>
    <i type="int" name="IDIPOL">     0</i>
    <i name="EPSILON">      1.00000000</i>
    <v name="DIPOL">   -100.00000000   -100.00000000   -100.00000000</v>
    <i name="EFIELD">      0.00000000</i>
   </separator>
  </separator>
  <separator name="grids" >
   <i type="int" name="NGX">    70</i>
   <i type="int" name="NGY">    80</i>
   <i type="int" name="NGZ">   140</i>
   <i type="int" name="NGXF">   140</i>
   <i type="int" name="NGYF">   160</i>
   <i type="int" name="NGZF">   280</i>
   <i type="logical" name="ADDGRID"> F  </i>
  </separator>
  <separator name="ionic" >
   <i type="int" name="NSW">     0</i>
   <i type="int" name="IBRION">    -1</i>
   <i type="int" name="MDALGO">     0</i>
   <i type="int" name="ISIF">     2</i>
   <i name="PSTRESS">      0.00000000</i>
   <i name="EDIFFG">     -0.01000000</i>
   <i type="int" name="NFREE">     0</i>
   <i name="POTIM">      0.50000000</i>
   <i name="SMASS">     -3.00000000</i>
   <i name="SCALEE">      1.00000000</i>
  </separator>
  <separator name="ionic md" >
   <i name="TEBEG">      0.00010000</i>
   <i name="TEEND">      0.00010000</i>
   <i type="int" name="NBLOCK">     1</i>
   <i type="int" name="KBLOCK">     1</i>
   <i type="int" name="NPACO">   256</i>
   <i name="APACO">     10.00000000</i>
  </separator>
  <separator name="symmetry" >
   <i type="int" name="ISYM">     2</i>
   <i name="SYMPREC">      0.00001000</i>
  </separator>
  <separator name="dos" >
   <i type="int" name="LORBIT">     0</i>
   <v name="RWIGS">     -1.00000000     -1.00000000     -1.00000000     -1.00000000</v>
   <i type="int" name="NEDOS">   301</i>
   <i name="EMIN">     10.00000000</i>
   <i name="EMAX">    -10.00000000</i>
   <i name="EFERMI">      0.00000000</i>
  </separator>
  <separator name="writing" >
   <i type="int" name="NWRITE">     2</i>
   <i type="logical" name="LWAVE"> T  </i>
   <i type="logical" name="LDOWNSAMPLE"> F  </i>
   <i type="logical" name="LCHARG"> F  </i>
   <i type="logical" name="LPARD"> F  </i>
   <i type="logical" name="LVTOT"> F  </i>
   <i type="logical" name="LVHAR"> F  </i>
   <i type="logical" name="LELF"> F  </i>
   <i type="logical" name="LOPTICS"> F  </i>
   <v name="STM">      0.00000000      0.00000000      0.00000000      0.00000000      0.00000000      0.00000000      0.00000000</v>
  </separator>
  <separator name="performance" >
   <i type="int" name="NPAR">     1</i>
   <i type="int" name="NSIM">     4</i>
   <i type="int" name="NBLK">    -1</i>
   <i type="logical" name="LPLANE"> T  </i>
   <i type="logical" name="LSCALAPACK"> T  </i>
   <i type="logical" name="LSCAAWARE"> F  </i>
   <i type="logical" name="LSCALU"> F  </i>
   <i type="logical" name="LASYNC"> F  </i>
   <i type="logical" name="LORBITALREAL"> F  </i>
  </separator>
  <separator name="miscellaneous" >
   <i type="int" name="IDIOT">     3</i>
   <i type="int" name="PHON_NSTRUCT">    -1</i>
   <i type="logical" name="LMUSIC"> F  </i>
   <v name="POMASS">     12.01100000     18.99800000     28.08500000     39.09800000</v>
   <v name="DARWINR">      0.00000000      0.00000000      0.00000000      0.00000000</v>
   <v name="DARWINV">      1.00000000      1.00000000      1.00000000      1.00000000</v>
   <i type="logical" name="LCORR"> T  </i>
  </separator>
  <i type="logical" name="GGA_COMPAT"> T  </i>
  <i type="logical" name="LBERRY"> F  </i>
  <i type="int" name="ICORELEVEL">     0</i>
  <i type="logical" name="LDAU"> F  </i>
  <i type="int" name="I_CONSTRAINED_M">     0</i>
  <separator name="electronic exchange-correlation" >
   <i type="string" name="GGA">--</i>
   <i type="int" name="VOSKOWN">     0</i>
   <i type="logical" name="LHFCALC"> F  </i>
   <i type="string" name="PRECFOCK"></i>
   <i type="logical" name="LSYMGRAD"> F  </i>
   <i type="logical" name="LHFONE"> F  </i>
   <i type="logical" name="LRHFCALC"> F  </i>
   <i type="logical" name="LTHOMAS"> F  </i>
   <i type="logical" name="LMODELHF"> F  </i>
   <i type="logical" name="LFOCKACE"> F  </i>
   <i name="ENCUT4O">     -1.00000000</i>
   <i type="int" name="EXXOEP">     0</i>
   <i type="int" name="FOURORBIT">     0</i>
   <i name="AEXX">      0.00000000</i>
   <i name="HFALPHA">      0.00000000</i>
   <i name="MCALPHA">      0.00000000</i>
   <i name="ALDAX">      1.00000000</i>
   <i name="AGGAX">      1.00000000</i>
   <i name="ALDAC">      1.00000000</i>
   <i name="AGGAC">      1.00000000</i>
   <i type="int" name="NKREDX">     1</i>
   <i type="int" name="NKREDY">     1</i>
   <i type="int" name="NKREDZ">     1</i>
   <i type="logical" name="SHIFTRED"> F  </i>
   <i type="logical" name="ODDONLY"> F  </i>
   <i type="logical" name="EVENONLY"> F  </i>
   <i type="int" name="LMAXFOCK">     0</i>
   <i type="int" name="NMAXFOCKAE">     0</i>
   <i type="logical" name="LFOCKAEDFT"> F  </i>
   <i name="HFSCREEN">      0.00000000</i>
   <i name="HFSCREENC">      0.00000000</i>
   <i type="int" name="NBANDSGWLOW">     0</i>
  </separator>
  <separator name="vdW DFT" >
   <i type="logical" name="LUSE_VDW"> F  </i>
   <i name="Zab_VDW">     -0.84910000</i>
   <i name="PARAM1">      0.12340000</i>
   <i name="PARAM2">      1.00000000</i>
   <i name="PARAM3">      0.00000000</i>
  </separator>
  <separator name="model GW" >
   <i type="int" name="MODEL_GW">     0</i>
   <i name="MODEL_EPS0">     11.10734508</i>
   <i name="MODEL_ALPHA">      1.00000000</i>
  </separator>
  <separator name="linear response parameters" >
   <i type="logical" name="LEPSILON"> F  </i>
   <i type="logical" name="LRPA"> F  </i>
   <i type="logical" name="LNABLA"> F  </i>
   <i type="logical" name="LVEL"> F  </i>
   <i name="CSHIFT">      0.10000000</i>
   <i name="OMEGAMAX">     -1.00000000</i>
   <i name="DEG_THRESHOLD">      0.00200000</i>
   <i name="RTIME">     -0.10000000</i>
   <i name="WPLASMAI">      0.00000000</i>
   <v name="DFIELD">      0.00000000      0.00000000      0.00000000</v>
   <v name="WPLASMA">      0.00000000      0.00000000      0.00000000      0.00000000      0.00000000      0.00000000      0.00000000      0.00000000      0.00000000</v>
  </separator>
  <separator name="orbital magnetization" >
   <i type="logical" name="NUCIND"> F  </i>
   <v name="MAGPOS">      0.00000000      0.00000000      0.00000000</v>
   <i type="logical" name="LNICSALL"> T  </i>
   <i type="logical" name="ORBITALMAG"> F  </i>
   <i type="logical" name="LMAGBLOCH"> F  </i>
   <i type="logical" name="LCHIMAG"> F  </i>
   <i type="logical" name="LGAUGE"> T  </i>
   <i type="int" name="MAGATOM">     0</i>
   <v name="MAGDIPOL">      0.00000000      0.00000000      0.00000000</v>
   <v name="AVECCONST">      0.00000000      0.00000000      0.00000000</v>
  </separator>
  <separator name="response functions" >
   <i type="logical" name="LFINITE_TEMPERATURE"> F  </i>
   <i type="logical" name="LADDER"> F  </i>
   <i type="logical" name="LRPAFORCE"> F  </i>
   <i type="logical" name="LFXC"> F  </i>
   <i type="logical" name="LHARTREE"> T  </i>
   <i type="int" name="IBSE">     0</i>
   <v type="int" name="KPOINT">    -1     0     0     0</v>
   <i type="logical" name="LTCTC"> F  </i>
   <i type="logical" name="LTCTE"> F  </i>
   <i type="logical" name="LTETE"> F  </i>
   <i type="logical" name="LTRIPLET"> F  </i>
   <i type="logical" name="LFXCEPS"> F  </i>
   <i type="logical" name="LFXHEG"> F  </i>
   <i type="int" name="NATURALO">     2</i>
   <i type="logical" name="LHOLEGF"> F  </i>
   <i type="logical" name="L2ORDER"> F  </i>
   <i type="logical" name="LDMP1"> F  </i>
   <i type="logical" name="LMP2LT"> F  </i>
   <i type="logical" name="LSMP2LT"> F  </i>
   <i type="logical" name="LGWLF"> F  </i>
   <i name="ENCUTGW">     -2.00000000</i>
   <i name="ENCUTGWSOFT">     -2.00000000</i>
   <i name="ENCUTLF">     -1.00000000</i>
   <i type="logical" name="LESF_SPLINES"> F  </i>
   <i type="int" name="LMAXMP2">    -1</i>
   <i name="SCISSOR">      0.00000000</i>
   <i type="int" name="NOMEGA">     0</i>
   <i type="int" name="NOMEGAR">     0</i>
   <i type="int" name="NBANDSGW">    -1</i>
   <i type="int" name="NBANDSO">    -1</i>
   <i type="int" name="NBANDSV">    -1</i>
   <i type="int" name="NELMGW">     1</i>
   <i type="int" name="NELMHF">     1</i>
   <i type="int" name="DIM">     3</i>
   <i type="int" name="IESPILON">     4</i>
   <i type="int" name="ANTIRES">     0</i>
   <i name="OMEGAMAX">    -30.00000000</i>
   <i name="OMEGAMIN">    -30.00000000</i>
   <i name="OMEGATL">   -200.00000000</i>
   <i type="int" name="OMEGAGRID">     0</i>
   <i name="CSHIFT">     -0.10000000</i>
   <i type="logical" name="LSELFENERGY"> F  </i>
   <i type="logical" name="LSPECTRAL"> F  </i>
   <i type="logical" name="LSPECTRALGW"> F  </i>
   <i type="logical" name="LSINGLES"> F  </i>
   <i type="logical" name="LFERMIGW"> F  </i>
   <i type="logical" name="ODDONLYGW"> F  </i>
   <i type="logical" name="EVENONLYGW"> F  </i>
   <i type="int" name="NKREDLFX">     1</i>
   <i type="int" name="NKREDLFY">     1</i>
   <i type="int" name="NKREDLFZ">     1</i>
   <i type="int" name="MAXMEM">  2800</i>
   <i type="int" name="TELESCOPE">     0</i>
   <i type="int" name="NTAUPAR">    -1</i>
   <i type="int" name="NOMEGAPAR">    -1</i>
   <i name="DAMP_NEWTON">      0.80000001</i>
   <i name="LAMBDA">      1.00000000</i>
  </separator>
  <separator name="External order field" >
   <i name="OFIELD_KAPPA">      0.00000000</i>
   <v name="OFIELD_K">      0.00000000      0.00000000      0.00000000</v>
   <i name="OFIELD_Q6_NEAR">      0.00000000</i>
   <i name="OFIELD_Q6_FAR">      0.00000000</i>
   <i name="OFIELD_A">      0.00000000</i>
  </separator>
  <separator name="optional k-points parameters" >
   <i type="int" name="KPOINTS_OPT_MODE">     1</i>
   <i type="logical" name="LKPOINTS_OPT"> F  </i>
  </separator>
  <separator name="solvation model" >
   <i type="logical" name="LSOL"> F  </i>
  </separator>
 </parameters>
 <atominfo>
  <atoms>      98 </atoms>
  <types>       4 </types>
  <array name="atoms" >
   <dimension dim="1">ion</dimension>
   <field type="string">element</field>
   <field type="int">atomtype</field>
   <set>
    <rc><c>C </c><c>   1</c></rc>
    <rc><c>C </c><c>   1</c></rc>
    <rc><c>C </c><c>   1</c></rc>
    <rc><c>C </c><c>   1</c></rc>
    <rc><c>C </c><c>   1</c></rc>
    <rc><c>C </c><c>   1</c></rc>
    <rc><c>C </c><c>   1</c></rc>
    <rc><c>C </c><c>   1</c></rc>
    <rc><c>C </c><c>   1</c></rc>
    <rc><c>C </c><c>   1</c></rc>
    <rc><c>C </c><c>   1</c></rc>
    <rc><c>C </c><c>   1</c></rc>
    <rc><c>C </c><c>   1</c></rc>
    <rc><c>C </c><c>   1</c></rc>
    <rc><c>C </c><c>   1</c></rc>
    <rc><c>C </c><c>   1</c></rc>
    <rc><c>C </c><c>   1</c></rc>
    <rc><c>C </c><c>   1</c></rc>
    <rc><c>C </c><c>   1</c></rc>
    <rc><c>C </c><c>   1</c></rc>
    <rc><c>C </c><c>   1</c></rc>
    <rc><c>C </c><c>   1</c></rc>
    <rc><c>C </c><c>   1</c></rc>
    <rc><c>C </c><c>   1</c></rc>
    <rc><c>C </c><c>   1</c></rc>
    <rc><c>C </c><c>   1</c></rc>
    <rc><c>C </c><c>   1</c></rc>
    <rc><c>C </c><c>   1</c></rc>
    <rc><c>C </c><c>   1</c></rc>
    <rc><c>C </c><c>   1</c></rc>
    <rc><c>C </c><c>   1</c></rc>
    <rc><c>C </c><c>   1</c></rc>
    <rc><c>C </c><c>   1</c></rc>
    <rc><c>C </c><c>   1</c></rc>
    <rc><c>C </c><c>   1</c></rc>
    <rc><c>C </c><c>   1</c></rc>
    <rc><c>C </c><c>   1</c></rc>
    <rc><c>C </c><c>   1</c></rc>
    <rc><c>C </c><c>   1</c></rc>
    <rc><c>C </c><c>   1</c></rc>
    <rc><c>C </c><c>   1</c></rc>
    <rc><c>C </c><c>   1</c></rc>
    <rc><c>C </c><c>   1</c></rc>
    <rc><c>C </c><c>   1</c></rc>
    <rc><c>C </c><c>   1</c></rc>
    <rc><c>C </c><c>   1</c></rc>
    <rc><c>C </c><c>   1</c></rc>
    <rc><c>C </c><c>   1</c></rc>
    <rc><c>F </c><c>   2</c></rc>
    <rc><c>Si</c><c>   3</c></rc>
    <rc><c>Si</c><c>   3</c></rc>
    <rc><c>Si</c><c>   3</c></rc>
    <rc><c>Si</c><c>   3</c></rc>
    <rc><c>Si</c><c>   3</c></rc>
    <rc><c>Si</c><c>   3</c></rc>
    <rc><c>Si</c><c>   3</c></rc>
    <rc><c>Si</c><c>   3</c></rc>
    <rc><c>Si</c><c>   3</c></rc>
    <rc><c>Si</c><c>   3</c></rc>
    <rc><c>Si</c><c>   3</c></rc>
    <rc><c>Si</c><c>   3</c></rc>
    <rc><c>Si</c><c>   3</c></rc>
    <rc><c>Si</c><c>   3</c></rc>
    <rc><c>Si</c><c>   3</c></rc>
    <rc><c>Si</c><c>   3</c></rc>
    <rc><c>Si</c><c>   3</c></rc>
    <rc><c>Si</c><c>   3</c></rc>
    <rc><c>Si</c><c>   3</c></rc>
    <rc><c>Si</c><c>   3</c></rc>
    <rc><c>Si</c><c>   3</c></rc>
    <rc><c>Si</c><c>   3</c></rc>
    <rc><c>Si</c><c>   3</c></rc>
    <rc><c>Si</c><c>   3</c></rc>
    <rc><c>Si</c><c>   3</c></rc>
    <rc><c>Si</c><c>   3</c></rc>
    <rc><c>Si</c><c>   3</c></rc>
    <rc><c>Si</c><c>   3</c></rc>
    <rc><c>Si</c><c>   3</c></rc>
    <rc><c>Si</c><c>   3</c></rc>
    <rc><c>Si</c><c>   3</c></rc>
    <rc><c>Si</c><c>   3</c></rc>
    <rc><c>Si</c><c>   3</c></rc>
    <rc><c>Si</c><c>   3</c></rc>
    <rc><c>Si</c><c>   3</c></rc>
    <rc><c>Si</c><c>   3</c></rc>
    <rc><c>Si</c><c>   3</c></rc>
    <rc><c>Si</c><c>   3</c></rc>
    <rc><c>Si</c><c>   3</c></rc>
    <rc><c>Si</c><c>   3</c></rc>
    <rc><c>Si</c><c>   3</c></rc>
    <rc><c>Si</c><c>   3</c></rc>
    <rc><c>Si</c><c>   3</c></rc>
    <rc><c>Si</c><c>   3</c></rc>
    <rc><c>Si</c><c>   3</c></rc>
    <rc><c>Si</c><c>   3</c></rc>
    <rc><c>Si</c><c>   3</c></rc>
    <rc><c>Si</c><c>   3</c></rc>
    <rc><c>K </c><c>   4</c></rc>
   </set>
  </array>
  <array name="atomtypes" >
   <dimension dim="1">type</dimension>
   <field type="int">atomspertype</field>
   <field type="string">element</field>
   <field>mass</field>
   <field>valence</field>
   <field type="string">pseudopotential</field>
   <set>
    <rc><c>  48</c><c>C </c><c>     12.01100000</c><c>      4.00000000</c><c> PAW_PBE C 08Apr2002                    </c></rc>
    <rc><c>   1</c><c>F </c><c>     18.99800000</c><c>      7.00000000</c><c> PAW_PBE F 08Apr2002                    </c></rc>
    <rc><c>  48</c><c>Si</c><c>     28.08500000</c><c>      4.00000000</c><c> PAW_PBE Si 05Jan2001                   </c></rc>
    <rc><c>   1</c><c>K </c><c>     39.09800000</c><c>      9.00000000</c><c> PAW_PBE K_sv 06Sep2000                 </c></rc>
   </set>
  </array>
 </atominfo>
 <structure name="initialpos" >
  <crystal>
   <varray name="basis" >
    <v>       9.28426200       0.00000000       0.00000000 </v>
    <v>       0.00000000      10.72054200       0.00000000 </v>
    <v>       0.00000000       0.00000000      18.22724200 </v>
   </varray>
   <i name="volume">   1814.19969640 </i>
   <varray name="rec_basis" >
    <v>       0.10770915       0.00000000       0.00000000 </v>
    <v>       0.00000000       0.09327887       0.00000000 </v>
    <v>       0.00000000       0.00000000       0.05486294 </v>
   </varray>
  </crystal>
  <varray name="positions" >
   <v>       0.00000000       0.00000000       0.31213000 </v>
   <v>       0.16666700       0.25000000       0.31213000 </v>
   <v>       0.99992673       0.33323298       0.43884839 </v>
   <v>       0.16665035       0.08325975       0.43848665 </v>
   <v>       0.00000000       0.16666600       0.03482200 </v>
   <v>       0.16666700       0.41666600       0.03482200 </v>
   <v>       0.00000000       0.33333300       0.17351800 </v>
   <v>       0.16666700       0.08333300       0.17351800 </v>
   <v>       0.33333300       0.00000000       0.31213000 </v>
   <v>       0.50000000       0.25000000       0.31213000 </v>
   <v>       0.33362440       0.33370797       0.44051825 </v>
   <v>       0.50008762       0.08334724       0.43823129 </v>
   <v>       0.33333300       0.16666600       0.03482200 </v>
   <v>       0.50000000       0.41666600       0.03482200 </v>
   <v>       0.33333300       0.33333400       0.17351800 </v>
   <v>       0.50000000       0.08333300       0.17351800 </v>
   <v>       0.66666700       0.00000000       0.31213000 </v>
   <v>       0.83333300       0.25000000       0.31213000 </v>
   <v>       0.66648616       0.33361019       0.43884707 </v>
   <v>       0.83326405       0.08329468       0.43863455 </v>
   <v>       0.66666700       0.16666600       0.03482200 </v>
   <v>       0.83333300       0.41666600       0.03482200 </v>
   <v>       0.66666700       0.33333300       0.17351800 </v>
   <v>       0.83333300       0.08333300       0.17351800 </v>
   <v>       0.00000000       0.50000000       0.31213000 </v>
   <v>       0.16666700       0.75000000       0.31213000 </v>
   <v>       0.99992245       0.83343727       0.43855608 </v>
   <v>       0.16709934       0.58341887       0.44352706 </v>
   <v>       0.00000000       0.66666600       0.03482200 </v>
   <v>       0.16666700       0.91666600       0.03482200 </v>
   <v>       0.00000000       0.83333300       0.17351800 </v>
   <v>       0.16666700       0.58333300       0.17351800 </v>
   <v>       0.33333300       0.50000000       0.31213000 </v>
   <v>       0.50000000       0.75000000       0.31213000 </v>
   <v>       0.33358559       0.83300480       0.44012312 </v>
   <v>       0.50008656       0.58332140       0.44887516 </v>
   <v>       0.33333300       0.66666600       0.03482200 </v>
   <v>       0.50000000       0.91666600       0.03482200 </v>
   <v>       0.33333300       0.83333300       0.17351800 </v>
   <v>       0.50000000       0.58333300       0.17351800 </v>
   <v>       0.66666700       0.50000000       0.31213000 </v>
   <v>       0.83333300       0.75000000       0.31213000 </v>
   <v>       0.66648321       0.83302598       0.43891674 </v>
   <v>       0.83289244       0.58336634       0.43918461 </v>
   <v>       0.66666700       0.66666600       0.03482200 </v>
   <v>       0.83333300       0.91666600       0.03482200 </v>
   <v>       0.66666700       0.83333300       0.17351800 </v>
   <v>       0.83333300       0.58333300       0.17351800 </v>
   <v>       0.49776179       0.58355509       0.53064896 </v>
   <v>       0.00000000       0.00000000       0.00000000 </v>
   <v>       0.16666700       0.25000000       0.00000000 </v>
   <v>       0.00000000       0.00000000       0.41654900 </v>
   <v>       0.16666700       0.25000000       0.41654900 </v>
   <v>       0.00000000       0.16666600       0.13894900 </v>
   <v>       0.16666700       0.41666600       0.13894900 </v>
   <v>       0.00000000       0.33333300       0.27764900 </v>
   <v>       0.16666700       0.08333300       0.27764900 </v>
   <v>       0.33333300       0.00000000       0.00000000 </v>
   <v>       0.50000000       0.25000000       0.00000000 </v>
   <v>       0.33333300       0.00000000       0.41654900 </v>
   <v>       0.50000000       0.25000000       0.41654900 </v>
   <v>       0.33333300       0.16666600       0.13894900 </v>
   <v>       0.50000000       0.41666600       0.13894900 </v>
   <v>       0.33333300       0.33333400       0.27764900 </v>
   <v>       0.50000000       0.08333300       0.27764900 </v>
   <v>       0.66666700       0.00000000       0.00000000 </v>
   <v>       0.83333300       0.25000000       0.00000000 </v>
   <v>       0.66666700       0.00000000       0.41654900 </v>
   <v>       0.83333300       0.25000000       0.41654900 </v>
   <v>       0.66666700       0.16666600       0.13894900 </v>
   <v>       0.83333300       0.41666600       0.13894900 </v>
   <v>       0.66666700       0.33333300       0.27764900 </v>
   <v>       0.83333300       0.08333300       0.27764900 </v>
   <v>       0.00000000       0.50000000       0.00000000 </v>
   <v>       0.16666700       0.75000000       0.00000000 </v>
   <v>       0.00000000       0.50000000       0.41654900 </v>
   <v>       0.16666700       0.75000000       0.41654900 </v>
   <v>       0.00000000       0.66666600       0.13894900 </v>
   <v>       0.16666700       0.91666600       0.13894900 </v>
   <v>       0.00000000       0.83333300       0.27764900 </v>
   <v>       0.16666700       0.58333300       0.27764900 </v>
   <v>       0.33333300       0.50000000       0.00000000 </v>
   <v>       0.50000000       0.75000000       0.00000000 </v>
   <v>       0.33333300       0.50000000       0.41654900 </v>
   <v>       0.50000000       0.75000000       0.41654900 </v>
   <v>       0.33333300       0.66666600       0.13894900 </v>
   <v>       0.50000000       0.91666600       0.13894900 </v>
   <v>       0.33333300       0.83333300       0.27764900 </v>
   <v>       0.50000000       0.58333300       0.27764900 </v>
   <v>       0.66666700       0.50000000       0.00000000 </v>
   <v>       0.83333300       0.75000000       0.00000000 </v>
   <v>       0.66666700       0.50000000       0.41654900 </v>
   <v>       0.83333300       0.75000000       0.41654900 </v>
   <v>       0.66666700       0.66666600       0.13894900 </v>
   <v>       0.83333300       0.91666600       0.13894900 </v>
   <v>       0.66666700       0.83333300       0.27764900 </v>
   <v>       0.83333300       0.58333300       0.27764900 </v>
   <v>       0.24069789       0.57641217       0.59200995 </v>
  </varray>
  <varray name="selective"  type="logical" >
   <v type="logical" >  F  F  F </v>
   <v type="logical" >  F  F  F </v>
   <v type="logical" >  T  T  T </v>
   <v type="logical" >  T  T  T </v>
   <v type="logical" >  F  F  F </v>
   <v type="logical" >  F  F  F </v>
   <v type="logical" >  F  F  F </v>
   <v type="logical" >  F  F  F </v>
   <v type="logical" >  F  F  F </v>
   <v type="logical" >  F  F  F </v>
   <v type="logical" >  T  T  T </v>
   <v type="logical" >  T  T  T </v>
   <v type="logical" >  F  F  F </v>
   <v type="logical" >  F  F  F </v>
   <v type="logical" >  F  F  F </v>
   <v type="logical" >  F  F  F </v>
   <v type="logical" >  F  F  F </v>
   <v type="logical" >  F  F  F </v>
   <v type="logical" >  T  T  T </v>
   <v type="logical" >  T  T  T </v>
   <v type="logical" >  F  F  F </v>
   <v type="logical" >  F  F  F </v>
   <v type="logical" >  F  F  F </v>
   <v type="logical" >  F  F  F </v>
   <v type="logical" >  F  F  F </v>
   <v type="logical" >  F  F  F </v>
   <v type="logical" >  T  T  T </v>
   <v type="logical" >  T  T  T </v>
   <v type="logical" >  F  F  F </v>
   <v type="logical" >  F  F  F </v>
   <v type="logical" >  F  F  F </v>
   <v type="logical" >  F  F  F </v>
   <v type="logical" >  F  F  F </v>
   <v type="logical" >  F  F  F </v>
   <v type="logical" >  T  T  T </v>
   <v type="logical" >  T  T  T </v>
   <v type="logical" >  F  F  F </v>
   <v type="logical" >  F  F  F </v>
   <v type="logical" >  F  F  F </v>
   <v type="logical" >  F  F  F </v>
   <v type="logical" >  F  F  F </v>
   <v type="logical" >  F  F  F </v>
   <v type="logical" >  T  T  T </v>
   <v type="logical" >  T  T  T </v>
   <v type="logical" >  F  F  F </v>
   <v type="logical" >  F  F  F </v>
   <v type="logical" >  F  F  F </v>
   <v type="logical" >  F  F  F </v>
   <v type="logical" >  T  T  T </v>
   <v type="logical" >  F  F  F </v>
   <v type="logical" >  F  F  F </v>
   <v type="logical" >  F  F  F </v>
   <v type="logical" >  F  F  F </v>
   <v type="logical" >  F  F  F </v>
   <v type="logical" >  F  F  F </v>
   <v type="logical" >  F  F  F </v>
   <v type="logical" >  F  F  F </v>
   <v type="logical" >  F  F  F </v>
   <v type="logical" >  F  F  F </v>
   <v type="logical" >  F  F  F </v>
   <v type="logical" >  F  F  F </v>
   <v type="logical" >  F  F  F </v>
   <v type="logical" >  F  F  F </v>
   <v type="logical" >  F  F  F </v>
   <v type="logical" >  F  F  F </v>
   <v type="logical" >  F  F  F </v>
   <v type="logical" >  F  F  F </v>
   <v type="logical" >  F  F  F </v>
   <v type="logical" >  F  F  F </v>
   <v type="logical" >  F  F  F </v>
   <v type="logical" >  F  F  F </v>
   <v type="logical" >  F  F  F </v>
   <v type="logical" >  F  F  F </v>
   <v type="logical" >  F  F  F </v>
   <v type="logical" >  F  F  F </v>
   <v type="logical" >  F  F  F </v>
   <v type="logical" >  F  F  F </v>
   <v type="logical" >  F  F  F </v>
   <v type="logical" >  F  F  F </v>
   <v type="logical" >  F  F  F </v>
   <v type="logical" >  F  F  F </v>
   <v type="logical" >  F  F  F </v>
   <v type="logical" >  F  F  F </v>
   <v type="logical" >  F  F  F </v>
   <v type="logical" >  F  F  F </v>
   <v type="logical" >  F  F  F </v>
   <v type="logical" >  F  F  F </v>
   <v type="logical" >  F  F  F </v>
   <v type="logical" >  F  F  F </v>
   <v type="logical" >  F  F  F </v>
   <v type="logical" >  F  F  F </v>
   <v type="logical" >  F  F  F </v>
   <v type="logical" >  F  F  F </v>
   <v type="logical" >  F  F  F </v>
   <v type="logical" >  F  F  F </v>
   <v type="logical" >  F  F  F </v>
   <v type="logical" >  F  F  F </v>
   <v type="logical" >  T  T  T </v>
  </varray>
  <nose>
   <v>      -3.00000000       0.00000000       0.00010000       0.00010000 </v>
  </nose>
 </structure>
 <calculation>
  <scstep>
   <time name="dav">   46.85    6.79</time>
   <time name="total">   56.78    8.44</time>
   <energy>
    <i name="alphaZ">    340.57291683 </i>
    <i name="ewald">  27070.34935530 </i>
    <i name="hartreedc"> -40172.85006855 </i>
    <i name="XCdc">    303.91944896 </i>
    <i name="pawpsdc">   4337.97084573 </i>
    <i name="pawaedc">  -3548.78544197 </i>
    <i name="eentropy">     -0.09126225 </i>
    <i name="bandstr">    455.99821597 </i>
    <i name="atom">  13444.54662946 </i>
    <i name="e_fr_energy">   2231.63063949 </i>
    <i name="e_wo_entrp">   2231.72190174 </i>
    <i name="e_0_energy">   2231.67627061 </i>
   </energy>
  </scstep>
  <scstep>
   <time name="dav">   56.71    8.18</time>
   <time name="total">   56.72    8.18</time>
   <energy>
    <i name="e_fr_energy">   -467.11722047 </i>
    <i name="e_wo_entrp">   -467.04015394 </i>
    <i name="e_0_energy">   -467.07868720 </i>
   </energy>
  </scstep>
  <scstep>
   <time name="dav">   55.57    7.99</time>
   <time name="total">   55.59    8.00</time>
   <energy>
    <i name="e_fr_energy">   -780.94839172 </i>
    <i name="e_wo_entrp">   -780.84078096 </i>
    <i name="e_0_energy">   -780.89458634 </i>
   </energy>
  </scstep>
  <scstep>
   <time name="dav">   60.53    8.73</time>
   <time name="total">   60.54    8.73</time>
   <energy>
    <i name="e_fr_energy">   -798.02715705 </i>
    <i name="e_wo_entrp">   -797.91744184 </i>
    <i name="e_0_energy">   -797.97229945 </i>
   </energy>
  </scstep>
  <scstep>
   <time name="dav">   60.75    8.71</time>
   <time name="total">   62.79    9.32</time>
   <energy>
    <i name="e_fr_energy">   -798.61639210 </i>
    <i name="e_wo_entrp">   -798.50639520 </i>
    <i name="e_0_energy">   -798.56139365 </i>
   </energy>
  </scstep>
  <scstep>
   <time name="diag">    3.52    0.82</time>
   <time name="diis">    7.98    3.58</time>
   <time name="orth">    0.12    0.06</time>
   <time name="total">   23.32    6.64</time>
   <energy>
    <i name="e_fr_energy">   -703.10989347 </i>
    <i name="e_wo_entrp">   -703.09961266 </i>
    <i name="e_0_energy">   -703.10475306 </i>
   </energy>
  </scstep>
  <scstep>
   <time name="diag">    3.49    0.81</time>
   <time name="diis">    8.12    3.65</time>
   <time name="orth">    0.12    0.06</time>
   <time name="total">   23.48    6.73</time>
   <energy>
    <i name="e_fr_energy">   -694.56463324 </i>
    <i name="e_wo_entrp">   -694.44356995 </i>
    <i name="e_0_energy">   -694.50410159 </i>
   </energy>
  </scstep>
  <scstep>
   <time name="diag">    3.56    0.81</time>
   <time name="diis">    8.69    3.94</time>
   <time name="orth">    0.12    0.06</time>
   <time name="total">   24.09    7.02</time>
   <energy>
    <i name="e_fr_energy">   -688.10675243 </i>
    <i name="e_wo_entrp">   -687.84145267 </i>
    <i name="e_0_energy">   -687.97410255 </i>
   </energy>
  </scstep>
  <scstep>
   <time name="diag">    3.49    0.81</time>
   <time name="diis">    8.41    3.81</time>
   <time name="orth">    0.12    0.06</time>
   <time name="total">   23.82    6.89</time>
   <energy>
    <i name="e_fr_energy">   -688.39078219 </i>
    <i name="e_wo_entrp">   -688.13510086 </i>
    <i name="e_0_energy">   -688.26294152 </i>
   </energy>
  </scstep>
  <scstep>
   <time name="diag">    3.55    0.81</time>
   <time name="diis">    8.23    3.71</time>
   <time name="orth">    0.12    0.06</time>
   <time name="total">   23.64    6.79</time>
   <energy>
    <i name="e_fr_energy">   -689.15795863 </i>
    <i name="e_wo_entrp">   -689.02491982 </i>
    <i name="e_0_energy">   -689.09143922 </i>
   </energy>
  </scstep>
  <scstep>
   <time name="diag">    3.45    0.81</time>
   <time name="diis">    9.17    4.18</time>
   <time name="orth">    0.12    0.06</time>
   <time name="total">   24.63    7.28</time>
   <energy>
    <i name="e_fr_energy">   -685.78079157 </i>
    <i name="e_wo_entrp">   -685.43954060 </i>
    <i name="e_0_energy">   -685.61016608 </i>
   </energy>
  </scstep>
  <scstep>
   <time name="diag">    3.55    0.81</time>
   <time name="diis">   11.14    5.18</time>
   <time name="orth">    0.12    0.06</time>
   <time name="total">   26.55    8.26</time>
   <energy>
    <i name="e_fr_energy">   -685.61390040 </i>
    <i name="e_wo_entrp">   -685.28073884 </i>
    <i name="e_0_energy">   -685.44731962 </i>
   </energy>
  </scstep>
  <scstep>
   <time name="diag">    3.62    0.82</time>
   <time name="diis">    9.29    4.25</time>
   <time name="orth">    0.12    0.06</time>
   <time name="total">   24.76    7.33</time>
   <energy>
    <i name="e_fr_energy">   -685.17438687 </i>
    <i name="e_wo_entrp">   -684.79800820 </i>
    <i name="e_0_energy">   -684.98619754 </i>
   </energy>
  </scstep>
  <scstep>
   <time name="diag">    3.59    0.81</time>
   <time name="diis">    9.18    4.18</time>
   <time name="orth">    0.12    0.06</time>
   <time name="total">   24.65    7.25</time>
   <energy>
    <i name="e_fr_energy">   -685.12483796 </i>
    <i name="e_wo_entrp">   -684.74779157 </i>
    <i name="e_0_energy">   -684.93631477 </i>
   </energy>
  </scstep>
  <scstep>
   <time name="diag">    3.58    0.81</time>
   <time name="diis">    9.38    4.29</time>
   <time name="orth">    0.12    0.06</time>
   <time name="total">   24.93    7.38</time>
   <energy>
    <i name="e_fr_energy">   -685.02778983 </i>
    <i name="e_wo_entrp">   -684.64867268 </i>
    <i name="e_0_energy">   -684.83823126 </i>
   </energy>
  </scstep>
  <scstep>
   <time name="diag">    3.59    0.81</time>
   <time name="diis">    9.65    4.43</time>
   <time name="orth">    0.12    0.06</time>
   <time name="total">   25.53    7.57</time>
   <energy>
    <i name="e_fr_energy">   -684.94595934 </i>
    <i name="e_wo_entrp">   -684.56748792 </i>
    <i name="e_0_energy">   -684.75672363 </i>
   </energy>
  </scstep>
  <scstep>
   <time name="diag">    3.39    0.81</time>
   <time name="diis">    9.72    4.46</time>
   <time name="orth">    0.12    0.06</time>
   <time name="total">   25.43    7.60</time>
   <energy>
    <i name="e_fr_energy">   -684.85877277 </i>
    <i name="e_wo_entrp">   -684.47318402 </i>
    <i name="e_0_energy">   -684.66597839 </i>
   </energy>
  </scstep>
  <scstep>
   <time name="diag">    3.47    0.81</time>
   <time name="diis">   10.49    4.86</time>
   <time name="orth">    0.12    0.06</time>
   <time name="total">   26.40    8.02</time>
   <energy>
    <i name="e_fr_energy">   -684.84451029 </i>
    <i name="e_wo_entrp">   -684.46340617 </i>
    <i name="e_0_energy">   -684.65395823 </i>
   </energy>
  </scstep>
  <scstep>
   <time name="diag">    3.47    0.81</time>
   <time name="diis">   10.52    4.87</time>
   <time name="orth">    0.12    0.06</time>
   <time name="total">   26.37    8.03</time>
   <energy>
    <i name="e_fr_energy">   -684.81729436 </i>
    <i name="e_wo_entrp">   -684.43537111 </i>
    <i name="e_0_energy">   -684.62633273 </i>
   </energy>
  </scstep>
  <scstep>
   <time name="diag">    3.39    0.81</time>
   <time name="diis">   10.20    4.70</time>
   <time name="orth">    0.12    0.06</time>
   <time name="total">   26.37    7.90</time>
   <energy>
    <i name="e_fr_energy">   -684.80830528 </i>
    <i name="e_wo_entrp">   -684.42623307 </i>
    <i name="e_0_energy">   -684.61726917 </i>
   </energy>
  </scstep>
  <scstep>
   <time name="diag">    3.33    0.81</time>
   <time name="diis">   11.32    5.27</time>
   <time name="orth">    0.12    0.06</time>
   <time name="total">   27.24    8.44</time>
   <energy>
    <i name="e_fr_energy">   -684.78974028 </i>
    <i name="e_wo_entrp">   -684.40488506 </i>
    <i name="e_0_energy">   -684.59731267 </i>
   </energy>
  </scstep>
  <scstep>
   <time name="diag">    3.39    0.81</time>
   <time name="diis">   10.07    4.66</time>
   <time name="orth">    0.12    0.06</time>
   <time name="total">   25.96    7.81</time>
   <energy>
    <i name="e_fr_energy">   -684.79804413 </i>
    <i name="e_wo_entrp">   -684.41027882 </i>
    <i name="e_0_energy">   -684.60416148 </i>
   </energy>
  </scstep>
  <scstep>
   <time name="diag">    3.42    0.81</time>
   <time name="diis">   10.67    4.95</time>
   <time name="orth">    0.12    0.06</time>
   <time name="total">   26.60    8.11</time>
   <energy>
    <i name="e_fr_energy">   -684.79653171 </i>
    <i name="e_wo_entrp">   -684.40847091 </i>
    <i name="e_0_energy">   -684.60250131 </i>
   </energy>
  </scstep>
  <scstep>
   <time name="diag">    3.47    0.81</time>
   <time name="diis">   10.91    5.06</time>
   <time name="orth">    0.12    0.06</time>
   <time name="total">   26.99    8.24</time>
   <energy>
    <i name="e_fr_energy">   -684.80239310 </i>
    <i name="e_wo_entrp">   -684.41635379 </i>
    <i name="e_0_energy">   -684.60937345 </i>
   </energy>
  </scstep>
  <scstep>
   <time name="diag">    3.46    0.81</time>
   <time name="diis">   10.93    5.07</time>
   <time name="orth">    0.12    0.06</time>
   <time name="total">   26.94    8.25</time>
   <energy>
    <i name="e_fr_energy">   -684.80644716 </i>
    <i name="e_wo_entrp">   -684.42039048 </i>
    <i name="e_0_energy">   -684.61341882 </i>
   </energy>
  </scstep>
  <scstep>
   <time name="diag">    3.45    0.81</time>
   <time name="diis">   11.00    5.11</time>
   <time name="orth">    0.13    0.07</time>
   <time name="total">   27.10    8.29</time>
   <energy>
    <i name="e_fr_energy">   -684.80894941 </i>
    <i name="e_wo_entrp">   -684.42192963 </i>
    <i name="e_0_energy">   -684.61543952 </i>
   </energy>
  </scstep>
  <scstep>
   <time name="diag">    3.51    0.81</time>
   <time name="diis">   11.68    5.45</time>
   <time name="orth">    0.12    0.06</time>
   <time name="total">   27.86    8.65</time>
   <energy>
    <i name="e_fr_energy">   -684.81174760 </i>
    <i name="e_wo_entrp">   -684.42459880 </i>
    <i name="e_0_energy">   -684.61817320 </i>
   </energy>
  </scstep>
  <scstep>
   <time name="diag">    3.45    0.81</time>
   <time name="diis">   11.04    5.12</time>
   <time name="orth">    0.12    0.06</time>
   <time name="total">   27.19    8.32</time>
   <energy>
    <i name="e_fr_energy">   -684.81186216 </i>
    <i name="e_wo_entrp">   -684.42469904 </i>
    <i name="e_0_energy">   -684.61828060 </i>
   </energy>
  </scstep>
  <scstep>
   <time name="diag">    3.53    0.81</time>
   <time name="diis">   11.88    5.55</time>
   <time name="orth">    0.12    0.06</time>
   <time name="total">   28.09    8.76</time>
   <energy>
    <i name="e_fr_energy">   -684.81233701 </i>
    <i name="e_wo_entrp">   -684.42534852 </i>
    <i name="e_0_energy">   -684.61884277 </i>
   </energy>
  </scstep>
  <scstep>
   <time name="diag">    3.53    0.81</time>
   <time name="diis">   11.49    5.34</time>
   <time name="orth">    0.12    0.06</time>
   <time name="total">   27.76    8.56</time>
   <energy>
    <i name="e_fr_energy">   -684.81318577 </i>
    <i name="e_wo_entrp">   -684.42623708 </i>
    <i name="e_0_energy">   -684.61971143 </i>
   </energy>
  </scstep>
  <scstep>
   <time name="diag">    3.56    0.81</time>
   <time name="diis">   11.43    5.32</time>
   <time name="orth">    0.12    0.06</time>
   <time name="total">   27.75    8.54</time>
   <energy>
    <i name="e_fr_energy">   -684.81345476 </i>
    <i name="e_wo_entrp">   -684.42650300 </i>
    <i name="e_0_energy">   -684.61997888 </i>
   </energy>
  </scstep>
  <scstep>
   <time name="diag">    3.48    0.81</time>
   <time name="diis">   11.12    5.17</time>
   <time name="orth">    0.12    0.06</time>
   <time name="total">   27.62    8.41</time>
   <energy>
    <i name="e_fr_energy">   -684.81377330 </i>
    <i name="e_wo_entrp">   -684.42684332 </i>
    <i name="e_0_energy">   -684.62030831 </i>
   </energy>
  </scstep>
  <scstep>
   <time name="diag">    3.34    0.81</time>
   <time name="diis">   10.87    5.04</time>
   <time name="orth">    0.12    0.06</time>
   <time name="total">   27.27    8.29</time>
   <energy>
    <i name="e_fr_energy">   -684.81386264 </i>
    <i name="e_wo_entrp">   -684.42690982 </i>
    <i name="e_0_energy">   -684.62038623 </i>
   </energy>
  </scstep>
  <scstep>
   <time name="diag">    3.39    0.81</time>
   <time name="diis">   10.60    4.90</time>
   <time name="orth">    0.12    0.06</time>
   <time name="total">   27.15    8.17</time>
   <energy>
    <i name="e_fr_energy">   -684.81403353 </i>
    <i name="e_wo_entrp">   -684.42710822 </i>
    <i name="e_0_energy">   -684.62057088 </i>
   </energy>
  </scstep>
  <scstep>
   <time name="diag">    3.51    0.81</time>
   <time name="diis">   11.15    5.18</time>
   <time name="orth">    0.12    0.06</time>
   <time name="total">   27.65    8.42</time>
   <energy>
    <i name="e_fr_energy">   -684.81420362 </i>
    <i name="e_wo_entrp">   -684.42727935 </i>
    <i name="e_0_energy">   -684.62074148 </i>
   </energy>
  </scstep>
  <scstep>
   <time name="diag">    3.55    0.81</time>
   <time name="diis">   10.01    4.59</time>
   <time name="orth">    0.12    0.06</time>
   <time name="total">   26.64    7.85</time>
   <energy>
    <i name="e_fr_energy">   -684.81426440 </i>
    <i name="e_wo_entrp">   -684.42733386 </i>
    <i name="e_0_energy">   -684.62079913 </i>
   </energy>
  </scstep>
  <scstep>
   <time name="diag">    3.52    0.81</time>
   <time name="diis">    7.67    3.41</time>
   <time name="orth">    0.12    0.06</time>
   <time name="total">   24.21    6.67</time>
   <energy>
    <i name="e_fr_energy">   -684.81430184 </i>
    <i name="e_wo_entrp">   -684.42736746 </i>
    <i name="e_0_energy">   -684.62083465 </i>
   </energy>
  </scstep>
  <scstep>
   <time name="diag">    3.60    0.81</time>
   <time name="diis">    7.13    3.15</time>
   <time name="orth">    0.12    0.06</time>
   <time name="total">   23.86    6.42</time>
   <energy>
    <i name="e_fr_energy">   -684.81431663 </i>
    <i name="e_wo_entrp">   -684.42737959 </i>
    <i name="e_0_energy">   -684.62084811 </i>
   </energy>
  </scstep>
  <scstep>
   <time name="diag">    3.52    0.81</time>
   <time name="diis">    7.70    3.43</time>
   <time name="orth">    0.12    0.06</time>
   <time name="total">   24.51    6.72</time>
   <energy>
    <i name="e_fr_energy">   -684.81432767 </i>
    <i name="e_wo_entrp">   -684.42738483 </i>
    <i name="e_0_energy">   -684.62085625 </i>
   </energy>
  </scstep>
  <scstep>
   <time name="diag">    3.59    0.81</time>
   <time name="diis">    6.91    3.06</time>
   <time name="orth">    0.12    0.06</time>
   <time name="total">   23.79    6.36</time>
   <energy>
    <i name="e_fr_energy">   -684.81433077 </i>
    <i name="e_wo_entrp">   -684.42738747 </i>
    <i name="e_0_energy">   -684.62085912 </i>
   </energy>
  </scstep>
  <scstep>
   <time name="diag">    3.50    0.81</time>
   <time name="diis">    6.64    2.91</time>
   <time name="orth">    0.12    0.06</time>
   <time name="total">   23.48    6.22</time>
   <energy>
    <i name="e_fr_energy">   -684.81433350 </i>
    <i name="e_wo_entrp">   -684.42739770 </i>
    <i name="e_0_energy">   -684.62086560 </i>
   </energy>
  </scstep>
  <scstep>
   <time name="diag">    3.53    0.81</time>
   <time name="diis">    6.20    2.68</time>
   <time name="orth">    0.12    0.06</time>
   <time name="total">   23.08    6.00</time>
   <energy>
    <i name="e_fr_energy">   -684.81433473 </i>
    <i name="e_wo_entrp">   -684.42739781 </i>
    <i name="e_0_energy">   -684.62086627 </i>
   </energy>
  </scstep>
  <scstep>
   <time name="diag">    3.52    0.81</time>
   <time name="diis">    5.52    2.34</time>
   <time name="orth">    0.12    0.06</time>
   <time name="total">   18.87    4.84</time>
   <energy>
    <i name="alphaZ">    340.57291683 </i>
    <i name="ewald">  27070.34935530 </i>
    <i name="hartreedc"> -41187.60312680 </i>
    <i name="XCdc">    354.68462126 </i>
    <i name="pawpsdc">   5711.52625509 </i>
    <i name="pawaedc">  -4933.57573022 </i>
    <i name="eentropy">     -0.38693758 </i>
    <i name="bandstr">  -1484.92831845 </i>
    <i name="atom">  13444.54662946 </i>
    <i name="e_fr_energy">   -684.81433511 </i>
    <i name="e_wo_entrp">   -684.42739753 </i>
    <i name="e_0_energy">   -684.62086632 </i>
   </energy>
  </scstep>
  <structure>
   <crystal>
    <varray name="basis" >
     <v>       9.28426200       0.00000000       0.00000000 </v>
     <v>       0.00000000      10.72054200       0.00000000 </v>
     <v>       0.00000000       0.00000000      18.22724200 </v>
    </varray>
    <i name="volume">   1814.19969640 </i>
    <varray name="rec_basis" >
     <v>       0.10770915       0.00000000       0.00000000 </v>
     <v>       0.00000000       0.09327887       0.00000000 </v>
     <v>       0.00000000       0.00000000       0.05486294 </v>
    </varray>
   </crystal>
   <varray name="positions" >
    <v>       0.00000000       0.00000000       0.31213000 </v>
    <v>       0.16666700       0.25000000       0.31213000 </v>
    <v>       0.99992673       0.33323298       0.43884839 </v>
    <v>       0.16665035       0.08325975       0.43848665 </v>
    <v>       0.00000000       0.16666600       0.03482200 </v>
    <v>       0.16666700       0.41666600       0.03482200 </v>
    <v>       0.00000000       0.33333300       0.17351800 </v>
    <v>       0.16666700       0.08333300       0.17351800 </v>
    <v>       0.33333300       0.00000000       0.31213000 </v>
    <v>       0.50000000       0.25000000       0.31213000 </v>
    <v>       0.33362440       0.33370797       0.44051825 </v>
    <v>       0.50008762       0.08334724       0.43823129 </v>
    <v>       0.33333300       0.16666600       0.03482200 </v>
    <v>       0.50000000       0.41666600       0.03482200 </v>
    <v>       0.33333300       0.33333400       0.17351800 </v>
    <v>       0.50000000       0.08333300       0.17351800 </v>
    <v>       0.66666700       0.00000000       0.31213000 </v>
    <v>       0.83333300       0.25000000       0.31213000 </v>
    <v>       0.66648616       0.33361019       0.43884707 </v>
    <v>       0.83326405       0.08329468       0.43863455 </v>
    <v>       0.66666700       0.16666600       0.03482200 </v>
    <v>       0.83333300       0.41666600       0.03482200 </v>
    <v>       0.66666700       0.33333300       0.17351800 </v>
    <v>       0.83333300       0.08333300       0.17351800 </v>
    <v>       0.00000000       0.50000000       0.31213000 </v>
    <v>       0.16666700       0.75000000       0.31213000 </v>
    <v>       0.99992245       0.83343727       0.43855608 </v>
    <v>       0.16709934       0.58341887       0.44352706 </v>
    <v>       0.00000000       0.66666600       0.03482200 </v>
    <v>       0.16666700       0.91666600       0.03482200 </v>
    <v>       0.00000000       0.83333300       0.17351800 </v>
    <v>       0.16666700       0.58333300       0.17351800 </v>
    <v>       0.33333300       0.50000000       0.31213000 </v>
    <v>       0.50000000       0.75000000       0.31213000 </v>
    <v>       0.33358559       0.83300480       0.44012312 </v>
    <v>       0.50008656       0.58332140       0.44887516 </v>
    <v>       0.33333300       0.66666600       0.03482200 </v>
    <v>       0.50000000       0.91666600       0.03482200 </v>
    <v>       0.33333300       0.83333300       0.17351800 </v>
    <v>       0.50000000       0.58333300       0.17351800 </v>
    <v>       0.66666700       0.50000000       0.31213000 </v>
    <v>       0.83333300       0.75000000       0.31213000 </v>
    <v>       0.66648321       0.83302598       0.43891674 </v>
    <v>       0.83289244       0.58336634       0.43918461 </v>
    <v>       0.66666700       0.66666600       0.03482200 </v>
    <v>       0.83333300       0.91666600       0.03482200 </v>
    <v>       0.66666700       0.83333300       0.17351800 </v>
    <v>       0.83333300       0.58333300       0.17351800 </v>
    <v>       0.49776179       0.58355509       0.53064896 </v>
    <v>       0.00000000       0.00000000       0.00000000 </v>
    <v>       0.16666700       0.25000000       0.00000000 </v>
    <v>       0.00000000       0.00000000       0.41654900 </v>
    <v>       0.16666700       0.25000000       0.41654900 </v>
    <v>       0.00000000       0.16666600       0.13894900 </v>
    <v>       0.16666700       0.41666600       0.13894900 </v>
    <v>       0.00000000       0.33333300       0.27764900 </v>
    <v>       0.16666700       0.08333300       0.27764900 </v>
    <v>       0.33333300       0.00000000       0.00000000 </v>
    <v>       0.50000000       0.25000000       0.00000000 </v>
    <v>       0.33333300       0.00000000       0.41654900 </v>
    <v>       0.50000000       0.25000000       0.41654900 </v>
    <v>       0.33333300       0.16666600       0.13894900 </v>
    <v>       0.50000000       0.41666600       0.13894900 </v>
    <v>       0.33333300       0.33333400       0.27764900 </v>
    <v>       0.50000000       0.08333300       0.27764900 </v>
    <v>       0.66666700       0.00000000       0.00000000 </v>
    <v>       0.83333300       0.25000000       0.00000000 </v>
    <v>       0.66666700       0.00000000       0.41654900 </v>
    <v>       0.83333300       0.25000000       0.41654900 </v>
    <v>       0.66666700       0.16666600       0.13894900 </v>
    <v>       0.83333300       0.41666600       0.13894900 </v>
    <v>       0.66666700       0.33333300       0.27764900 </v>
    <v>       0.83333300       0.08333300       0.27764900 </v>
    <v>       0.00000000       0.50000000       0.00000000 </v>
    <v>       0.16666700       0.75000000       0.00000000 </v>
    <v>       0.00000000       0.50000000       0.41654900 </v>
    <v>       0.16666700       0.75000000       0.41654900 </v>
    <v>       0.00000000       0.66666600       0.13894900 </v>
    <v>       0.16666700       0.91666600       0.13894900 </v>
    <v>       0.00000000       0.83333300       0.27764900 </v>
    <v>       0.16666700       0.58333300       0.27764900 </v>
    <v>       0.33333300       0.50000000       0.00000000 </v>
    <v>       0.50000000       0.75000000       0.00000000 </v>
    <v>       0.33333300       0.50000000       0.41654900 </v>
    <v>       0.50000000       0.75000000       0.41654900 </v>
    <v>       0.33333300       0.66666600       0.13894900 </v>
    <v>       0.50000000       0.91666600       0.13894900 </v>
    <v>       0.33333300       0.83333300       0.27764900 </v>
    <v>       0.50000000       0.58333300       0.27764900 </v>
    <v>       0.66666700       0.50000000       0.00000000 </v>
    <v>       0.83333300       0.75000000       0.00000000 </v>
    <v>       0.66666700       0.50000000       0.41654900 </v>
    <v>       0.83333300       0.75000000       0.41654900 </v>
    <v>       0.66666700       0.66666600       0.13894900 </v>
    <v>       0.83333300       0.91666600       0.13894900 </v>
    <v>       0.66666700       0.83333300       0.27764900 </v>
    <v>       0.83333300       0.58333300       0.27764900 </v>
    <v>       0.24069789       0.57641217       0.59200995 </v>
   </varray>
  </structure>
  <varray name="forces" >
   <v>      -0.00667084       0.01816110      -1.58141039 </v>
   <v>      -0.00331336      -0.01445918      -1.57141574 </v>
   <v>       0.00032442      -0.00025810       0.00003551 </v>
   <v>      -0.00002251      -0.00002864       0.00041170 </v>
   <v>      -0.00158470      -0.02746268      -0.99704372 </v>
   <v>       0.01453186      -0.00024244      -0.97344877 </v>
   <v>      -0.01328894      -0.03499478      -0.63823098 </v>
   <v>      -0.00528640      -0.00928781      -0.60405672 </v>
   <v>       0.03109700       0.00506466      -1.58243548 </v>
   <v>       0.01674098      -0.00645664      -1.56516449 </v>
   <v>       0.00006257       0.00012712      -0.00037864 </v>
   <v>      -0.00005879      -0.00006188      -0.00004312 </v>
   <v>      -0.00273125      -0.02295491      -0.98701846 </v>
   <v>       0.00259100      -0.02309292      -0.94983604 </v>
   <v>      -0.01508764      -0.03476132      -0.57214128 </v>
   <v>       0.00912953       0.00608781      -0.61415046 </v>
   <v>      -0.02268724      -0.00650209      -1.59194013 </v>
   <v>      -0.01055015       0.01962413      -1.58630511 </v>
   <v>      -0.00034551       0.00000977       0.00055100 </v>
   <v>       0.00009171      -0.00041253       0.00069680 </v>
   <v>       0.00128192      -0.01519450      -0.96491014 </v>
   <v>      -0.01813042       0.00799299      -0.96455969 </v>
   <v>       0.02872873      -0.00623924      -0.55073154 </v>
   <v>      -0.00278781      -0.00453526      -0.58856766 </v>
   <v>      -0.08061011      -0.07220389      -1.56116529 </v>
   <v>      -0.00772159       0.07574001      -1.55643536 </v>
   <v>      -0.00004120       0.00026901       0.00049597 </v>
   <v>       0.00041219      -0.00018057      -0.00011427 </v>
   <v>      -0.00094201       0.01611683      -0.96528942 </v>
   <v>       0.00414782       0.01387807      -0.98618622 </v>
   <v>      -0.02672114       0.02274963      -0.62265250 </v>
   <v>      -0.02567114      -0.01702196      -0.59154200 </v>
   <v>       0.41186182       0.17434107      -1.05696272 </v>
   <v>       0.02763241      -0.40476287      -1.07048045 </v>
   <v>       0.00025207       0.00077750       0.00178050 </v>
   <v>      -0.00084058      -0.00024121       0.00016426 </v>
   <v>      -0.00518514       0.01450057      -0.96359574 </v>
   <v>       0.02104912      -0.02322352      -0.98915199 </v>
   <v>       0.03005362       0.03998617      -0.56953132 </v>
   <v>       0.02985015       0.00807593      -0.60351542 </v>
   <v>      -0.35908716       0.20876518      -1.07383993 </v>
   <v>      -0.02937364       0.00644356      -1.57765798 </v>
   <v>      -0.00009396       0.00016886       0.00035162 </v>
   <v>      -0.00032594      -0.00002271       0.00035549 </v>
   <v>       0.00913801       0.02156756      -0.99294684 </v>
   <v>      -0.01843576       0.00498102      -1.00622789 </v>
   <v>      -0.00699529       0.02571910      -0.55377604 </v>
   <v>      -0.00964533      -0.00427297      -0.57547367 </v>
   <v>      -0.00312200       0.00007948      -0.00042149 </v>
   <v>      -0.00254792      -0.01529510       0.68227350 </v>
   <v>      -0.01161568       0.03256534       0.68787733 </v>
   <v>      -0.02835547      -0.00382894       0.94853465 </v>
   <v>       0.19924701       0.18470283       0.97361585 </v>
   <v>       0.00600843       0.01254933       0.55473736 </v>
   <v>      -0.01278935      -0.00472007       0.56277951 </v>
   <v>       0.01860811       0.06306094       0.93632984 </v>
   <v>       0.01078184       0.02506232       0.94312466 </v>
   <v>       0.00898483       0.00279063       0.67809267 </v>
   <v>       0.00255998       0.03073490       0.71258544 </v>
   <v>       0.02188665      -0.25801155       0.99268467 </v>
   <v>      -0.15852898       0.12877633       1.02470105 </v>
   <v>       0.00294633       0.01070660       0.55887624 </v>
   <v>      -0.00339905      -0.00456503       0.54985856 </v>
   <v>       0.03339384      -0.00121889       0.95947824 </v>
   <v>      -0.01695498       0.01358909       0.93667453 </v>
   <v>      -0.00787173       0.04132224       0.70839947 </v>
   <v>       0.01049079       0.02285132       0.67095506 </v>
   <v>       0.00826856      -0.12010858       0.96721291 </v>
   <v>      -0.03779106       0.04758462       0.98216520 </v>
   <v>      -0.01005446       0.00178687       0.55131173 </v>
   <v>       0.01638441      -0.00452693       0.55410353 </v>
   <v>      -0.05311969      -0.07708840       0.94119145 </v>
   <v>       0.00541718       0.00460246       0.94661530 </v>
   <v>       0.00695928      -0.01817974       0.65037610 </v>
   <v>       0.01142254      -0.03222019       0.69679552 </v>
   <v>       0.50798252       0.33000287       0.99918605 </v>
   <v>       0.08331873      -0.49416344       0.96138190 </v>
   <v>       0.00449663      -0.00374476       0.55917737 </v>
   <v>       0.00698684       0.00519616       0.56193303 </v>
   <v>       0.07226696      -0.03702904       0.95622067 </v>
   <v>      -0.02705665       0.07594215       1.02727175 </v>
   <v>       0.02122506       0.02777070       0.65045533 </v>
   <v>      -0.02993083      -0.05478769       0.71225098 </v>
   <v>      -1.08662132      -0.26179772       0.29351465 </v>
   <v>      -0.10875566       0.76869724       0.55711821 </v>
   <v>      -0.00064793       0.00867972       0.54899051 </v>
   <v>       0.00057314       0.00299828       0.55224661 </v>
   <v>      -0.14836233      -0.03504930       0.96338676 </v>
   <v>      -0.07363783      -0.03085003       0.49010762 </v>
   <v>      -0.03135488       0.01178931       0.66881419 </v>
   <v>       0.01230679      -0.03505584       0.73038631 </v>
   <v>       0.62683475      -0.31862688       0.61853906 </v>
   <v>       0.01431674      -0.02679055       0.98949017 </v>
   <v>      -0.00147310       0.00077267       0.54291163 </v>
   <v>      -0.00445977      -0.00523533       0.55920087 </v>
   <v>       0.07851608      -0.01907087       0.94436119 </v>
   <v>       0.10446007       0.03665346       0.93958575 </v>
   <v>      -0.00293478       0.00842395      -0.00196871 </v>
  </varray>
  <varray name="stress" >
   <v>      11.66180794      -0.02974989       0.05265269 </v>
   <v>      -0.02974991      11.60062377       0.03905656 </v>
   <v>       0.05265260       0.03905688      19.06416381 </v>
  </varray>
  <energy>
   <i name="e_fr_energy">   -684.81433511 </i>
   <i name="e_wo_entrp">   -684.42739753 </i>
   <i name="e_0_energy">   -684.62086632 </i>
  </energy>
  <time name="totalsc"> 1317.94  344.94</time>
  <eigenvalues>
   <array>
    <dimension dim="1">band</dimension>
    <dimension dim="2">kpoint</dimension>
    <dimension dim="3">spin</dimension>
    <field>eigene</field>
    <field>occ</field>
    <set>
     <set comment="spin 1">
      <set comment="kpoint 1">
       <r>  -27.8558    1.0000 </r>
       <r>  -21.9802    1.0000 </r>
       <r>  -12.9944    1.0000 </r>
       <r>  -12.1634    1.0000 </r>
       <r>  -11.9558    1.0000 </r>
       <r>  -11.9548    1.0000 </r>
       <r>  -11.6208    1.0000 </r>
       <r>  -11.6204    1.0000 </r>
       <r>  -11.4122    1.0000 </r>
       <r>  -11.3973    1.0000 </r>
       <r>  -11.3758    1.0000 </r>
       <r>  -11.1463    1.0000 </r>
       <r>  -11.1448    1.0000 </r>
       <r>  -11.0931    1.0000 </r>
       <r>  -10.8263    1.0000 </r>
       <r>  -10.8105    1.0000 </r>
       <r>  -10.6853    1.0000 </r>
       <r>  -10.6848    1.0000 </r>
       <r>  -10.6819    1.0000 </r>
       <r>  -10.6813    1.0000 </r>
       <r>  -10.1536    1.0000 </r>
       <r>  -10.1301    1.0000 </r>
       <r>   -9.9547    1.0000 </r>
       <r>   -9.9413    1.0000 </r>
       <r>   -9.9325    1.0000 </r>
       <r>   -9.9196    1.0000 </r>
       <r>   -9.8497    1.0000 </r>
       <r>   -9.8176    1.0000 </r>
       <r>   -9.7545    1.0000 </r>
       <r>   -9.6014    1.0000 </r>
       <r>   -9.2724    1.0000 </r>
       <r>   -9.1258    1.0000 </r>
       <r>   -9.0742    1.0000 </r>
       <r>   -9.0610    1.0000 </r>
       <r>   -9.0534    1.0000 </r>
       <r>   -9.0130    1.0000 </r>
       <r>   -9.0126    1.0000 </r>
       <r>   -8.7712    1.0000 </r>
       <r>   -8.6831    1.0000 </r>
       <r>   -8.6814    1.0000 </r>
       <r>   -8.6732    1.0000 </r>
       <r>   -8.6317    1.0000 </r>
       <r>   -8.4107    1.0000 </r>
       <r>   -8.3365    1.0000 </r>
       <r>   -8.2220    1.0000 </r>
       <r>   -8.2201    1.0000 </r>
       <r>   -7.9358    1.0000 </r>
       <r>   -7.7027    1.0000 </r>
       <r>   -7.6801    1.0000 </r>
       <r>   -7.6723    1.0000 </r>
       <r>   -7.5510    1.0000 </r>
       <r>   -7.3475    1.0000 </r>
       <r>   -7.1863    1.0000 </r>
       <r>   -6.0800    1.0000 </r>
       <r>   -5.5305    1.0000 </r>
       <r>   -5.4742    1.0000 </r>
       <r>   -5.4211    1.0000 </r>
       <r>   -5.4210    1.0000 </r>
       <r>   -5.2674    1.0000 </r>
       <r>   -5.2581    1.0000 </r>
       <r>   -5.2570    1.0000 </r>
       <r>   -5.2557    1.0000 </r>
       <r>   -5.1619    1.0000 </r>
       <r>   -5.1268    1.0000 </r>
       <r>   -5.1262    1.0000 </r>
       <r>   -4.9538    1.0000 </r>
       <r>   -4.8887    1.0000 </r>
       <r>   -4.8668    1.0000 </r>
       <r>   -4.8559    1.0000 </r>
       <r>   -4.8360    1.0000 </r>
       <r>   -4.7283    1.0000 </r>
       <r>   -4.6701    1.0000 </r>
       <r>   -4.5975    1.0000 </r>
       <r>   -4.5569    1.0000 </r>
       <r>   -4.4449    1.0000 </r>
       <r>   -4.3420    1.0000 </r>
       <r>   -4.2820    1.0000 </r>
       <r>   -4.2723    1.0000 </r>
       <r>   -4.0895    1.0000 </r>
       <r>   -4.0747    1.0000 </r>
       <r>   -4.0619    1.0000 </r>
       <r>   -4.0472    1.0000 </r>
       <r>   -4.0014    1.0000 </r>
       <r>   -3.4489    1.0000 </r>
       <r>   -3.3785    1.0000 </r>
       <r>   -3.3662    1.0000 </r>
       <r>   -3.3599    1.0000 </r>
       <r>   -3.3592    1.0000 </r>
       <r>   -3.3316    1.0000 </r>
       <r>   -3.2027    1.0000 </r>
       <r>   -3.1900    1.0000 </r>
       <r>   -3.1758    1.0000 </r>
       <r>   -3.1160    1.0000 </r>
       <r>   -3.0706    1.0000 </r>
       <r>   -2.9835    1.0000 </r>
       <r>   -2.9205    1.0000 </r>
       <r>   -2.9010    1.0000 </r>
       <r>   -2.8771    1.0000 </r>
       <r>   -2.7035    1.0000 </r>
       <r>   -2.6439    1.0000 </r>
       <r>   -2.5668    1.0000 </r>
       <r>   -2.5452    1.0000 </r>
       <r>   -2.4239    1.0000 </r>
       <r>   -2.4197    1.0000 </r>
       <r>   -2.3680    1.0000 </r>
       <r>   -2.3389    1.0000 </r>
       <r>   -2.3149    1.0000 </r>
       <r>   -2.2493    1.0000 </r>
       <r>   -2.2113    1.0000 </r>
       <r>   -2.1446    1.0000 </r>
       <r>   -2.0785    1.0000 </r>
       <r>   -2.0558    1.0000 </r>
       <r>   -1.8258    1.0000 </r>
       <r>   -1.7201    1.0000 </r>
       <r>   -1.7120    1.0000 </r>
       <r>   -1.5455    1.0000 </r>
       <r>   -1.5022    1.0000 </r>
       <r>   -1.3776    1.0000 </r>
       <r>   -1.2848    1.0000 </r>
       <r>   -1.2828    1.0000 </r>
       <r>   -1.2812    1.0000 </r>
       <r>   -1.2645    1.0000 </r>
       <r>   -1.2276    1.0000 </r>
       <r>   -1.1788    1.0000 </r>
       <r>   -1.1676    1.0000 </r>
       <r>   -1.1237    1.0000 </r>
       <r>   -1.0944    1.0000 </r>
       <r>   -1.0887    1.0000 </r>
       <r>   -1.0680    1.0000 </r>
       <r>   -0.9887    1.0000 </r>
       <r>   -0.9681    1.0000 </r>
       <r>   -0.9142    1.0000 </r>
       <r>   -0.9068    1.0000 </r>
       <r>   -0.8402    1.0000 </r>
       <r>   -0.8262    1.0000 </r>
       <r>   -0.6816    1.0000 </r>
       <r>   -0.6565    1.0000 </r>
       <r>   -0.6129    1.0000 </r>
       <r>   -0.5988    1.0000 </r>
       <r>   -0.5955    1.0000 </r>
       <r>   -0.5838    1.0000 </r>
       <r>   -0.5689    1.0000 </r>
       <r>   -0.5468    1.0000 </r>
       <r>   -0.4443    1.0000 </r>
       <r>   -0.3248    1.0000 </r>
       <r>   -0.2866    1.0000 </r>
       <r>   -0.2708    1.0000 </r>
       <r>   -0.2008    1.0000 </r>
       <r>   -0.2005    1.0000 </r>
       <r>   -0.1093    1.0000 </r>
       <r>   -0.1018    1.0000 </r>
       <r>   -0.0845    1.0000 </r>
       <r>   -0.0725    1.0000 </r>
       <r>   -0.0420    1.0000 </r>
       <r>   -0.0292    1.0000 </r>
       <r>    0.2852    1.0000 </r>
       <r>    0.2968    1.0000 </r>
       <r>    0.3042    1.0000 </r>
       <r>    0.3213    1.0000 </r>
       <r>    0.3993    1.0000 </r>
       <r>    0.4172    1.0000 </r>
       <r>    0.4384    1.0000 </r>
       <r>    0.4520    1.0000 </r>
       <r>    0.5423    1.0000 </r>
       <r>    0.5479    1.0000 </r>
       <r>    0.5562    1.0000 </r>
       <r>    0.5757    1.0000 </r>
       <r>    0.7068    1.0000 </r>
       <r>    0.7347    1.0000 </r>
       <r>    0.9450    1.0000 </r>
       <r>    0.9457    1.0000 </r>
       <r>    0.9526    1.0000 </r>
       <r>    0.9643    1.0000 </r>
       <r>    0.9797    1.0000 </r>
       <r>    0.9821    1.0000 </r>
       <r>    1.0247    1.0000 </r>
       <r>    1.0438    1.0000 </r>
       <r>    1.0609    1.0000 </r>
       <r>    1.1034    1.0000 </r>
       <r>    1.2813    1.0000 </r>
       <r>    1.4161    1.0000 </r>
       <r>    1.4169    1.0000 </r>
       <r>    1.7775    1.0000 </r>
       <r>    1.7887    1.0000 </r>
       <r>    1.8744    1.0000 </r>
       <r>    1.8888    1.0000 </r>
       <r>    2.3911    1.0000 </r>
       <r>    2.4873    1.0000 </r>
       <r>    2.5565    1.0000 </r>
       <r>    2.5597    1.0000 </r>
       <r>    2.7765    0.9980 </r>
       <r>    2.7953    0.9954 </r>
       <r>    2.8061    0.9929 </r>
       <r>    2.8283    0.9838 </r>
       <r>    2.8563    0.9593 </r>
       <r>    2.8925    0.8907 </r>
       <r>    2.9230    0.7879 </r>
       <r>    2.9382    0.7205 </r>
       <r>    2.9385    0.7190 </r>
[...]
       <r>   -14.7376     0.0000     4.0000 </r>
       <r>   -14.6029     0.0000     4.0000 </r>
       <r>   -14.4682     0.0000     4.0000 </r>
       <r>   -14.3334     0.0000     4.0000 </r>
       <r>   -14.1987     0.0000     4.0000 </r>
       <r>   -14.0640     0.0000     4.0000 </r>
       <r>   -13.9292     0.0000     4.0000 </r>
       <r>   -13.7945     0.0000     4.0000 </r>
       <r>   -13.6598     0.0000     4.0000 </r>
       <r>   -13.5250     0.0000     4.0000 </r>
       <r>   -13.3903     0.0000     4.0000 </r>
       <r>   -13.2556     0.0001     4.0000 </r>
       <r>   -13.1208     0.0491     4.0066 </r>
       <r>   -12.9861     1.1070     4.1558 </r>
       <r>   -12.8514     4.4913     4.7609 </r>
       <r>   -12.7166     5.0711     5.4442 </r>
       <r>   -12.5819     4.1014     5.9968 </r>
       <r>   -12.4472     7.4784     7.0043 </r>
       <r>   -12.3124     3.8596     7.5244 </r>
       <r>   -12.1777     5.4833     8.2631 </r>
       <r>   -12.0430    10.5445     9.6838 </r>
       <r>   -11.9082     9.7836    11.0020 </r>
       <r>   -11.7735     9.8897    12.3345 </r>
       <r>   -11.6388    13.5262    14.1569 </r>
       <r>   -11.5040    14.0787    16.0538 </r>
       <r>   -11.3693    31.9254    20.3552 </r>
       <r>   -11.2346    26.7203    23.9553 </r>
       <r>   -11.0998    16.4601    26.1731 </r>
       <r>   -10.9651    14.4660    28.1221 </r>
       <r>   -10.8304    18.3682    30.5969 </r>
       <r>   -10.6956    18.2494    33.0558 </r>
       <r>   -10.5609    15.4576    35.1384 </r>
       <r>   -10.4262    16.5971    37.3746 </r>
       <r>   -10.2914    19.7866    40.0405 </r>
       <r>   -10.1567    16.1196    42.2124 </r>
       <r>   -10.0220    26.8304    45.8273 </r>
       <r>    -9.8872    22.2574    48.8262 </r>
       <r>    -9.7525    21.5427    51.7287 </r>
       <r>    -9.6178    20.7966    54.5307 </r>
       <r>    -9.4830    22.7100    57.5905 </r>
       <r>    -9.3483    38.1860    62.7354 </r>
       <r>    -9.2136    30.2838    66.8157 </r>
       <r>    -9.0788    27.6162    70.5365 </r>
       <r>    -8.9441    22.2993    73.5409 </r>
       <r>    -8.8094    25.7701    77.0130 </r>
       <r>    -8.6746    28.4109    80.8410 </r>
       <r>    -8.5399    28.1517    84.6339 </r>
       <r>    -8.4052    19.1935    87.2199 </r>
       <r>    -8.2704    17.4847    89.5757 </r>
       <r>    -8.1357    10.2388    90.9552 </r>
       <r>    -8.0010    11.4862    92.5028 </r>
       <r>    -7.8662     8.3934    93.6337 </r>
       <r>    -7.7315    10.7661    95.0842 </r>
       <r>    -7.5968    16.5920    97.3197 </r>
       <r>    -7.4620    21.8646   100.2656 </r>
       <r>    -7.3273    23.2595   103.3995 </r>
       <r>    -7.1925    14.5087   105.3543 </r>
       <r>    -7.0578     4.6091   105.9753 </r>
       <r>    -6.9231     0.1831   106.0000 </r>
       <r>    -6.7883     0.0004   106.0000 </r>
       <r>    -6.6536     0.0000   106.0000 </r>
       <r>    -6.5189     0.0000   106.0000 </r>
       <r>    -6.3841     0.0000   106.0000 </r>
       <r>    -6.2494     0.0321   106.0043 </r>
       <r>    -6.1147     1.3109   106.1810 </r>
       <r>    -5.9799     5.5607   106.9302 </r>
       <r>    -5.8452    10.9920   108.4112 </r>
       <r>    -5.7105     8.5905   109.5686 </r>
       <r>    -5.5757    12.5263   111.2563 </r>
       <r>    -5.4410    29.1254   115.1805 </r>
       <r>    -5.3063    34.0173   119.7638 </r>
       <r>    -5.1715    30.0662   123.8147 </r>
       <r>    -5.0368    42.3410   129.5195 </r>
       <r>    -4.9021    42.7476   135.2790 </r>
       <r>    -4.7673    39.3665   140.5830 </r>
       <r>    -4.6326    41.8557   146.2223 </r>
       <r>    -4.4979    40.0101   151.6131 </r>
       <r>    -4.3631    23.3907   154.7646 </r>
       <r>    -4.2284    18.3167   157.2324 </r>
       <r>    -4.0937    13.7129   159.0800 </r>
       <r>    -3.9589    22.7934   162.1511 </r>
       <r>    -3.8242    14.8733   164.1550 </r>
       <r>    -3.6895    13.5553   165.9813 </r>
       <r>    -3.5547    17.8626   168.3880 </r>
       <r>    -3.4200    24.0872   171.6334 </r>
       <r>    -3.2853    28.2305   175.4370 </r>
       <r>    -3.1505    20.9424   178.2586 </r>
       <r>    -3.0158    24.0403   181.4977 </r>
       <r>    -2.8811    40.1526   186.9076 </r>
       <r>    -2.7463    38.5839   192.1061 </r>
       <r>    -2.6116    31.4840   196.3481 </r>
       <r>    -2.4769    36.1603   201.2201 </r>
       <r>    -2.3421    39.1208   206.4910 </r>
       <r>    -2.2074    33.7738   211.0414 </r>
       <r>    -2.0727    33.9717   215.6186 </r>
       <r>    -1.9379    33.5987   220.1454 </r>
       <r>    -1.8032    31.1103   224.3370 </r>
       <r>    -1.6685    34.9112   229.0408 </r>
       <r>    -1.5337    32.4311   233.4103 </r>
       <r>    -1.3990    39.3283   238.7091 </r>
       <r>    -1.2643    48.4292   245.2342 </r>
       <r>    -1.1295    59.5009   253.2510 </r>
       <r>    -0.9948    51.2831   260.1605 </r>
       <r>    -0.8601    54.2769   267.4734 </r>
       <r>    -0.7253    43.0828   273.2781 </r>
       <r>    -0.5906    47.7446   279.7109 </r>
       <r>    -0.4559    40.9375   285.2266 </r>
       <r>    -0.3211    48.4969   291.7608 </r>
       <r>    -0.1864    41.2151   297.3138 </r>
       <r>    -0.0517    41.7110   302.9337 </r>
       <r>     0.0831    38.8962   308.1743 </r>
       <r>     0.2178    33.3538   312.6682 </r>
       <r>     0.3525    44.9942   318.7304 </r>
       <r>     0.4873    61.1555   326.9701 </r>
       <r>     0.6220    67.3009   336.0378 </r>
       <r>     0.7567    56.7970   343.6903 </r>
       <r>     0.8915    42.0876   349.3609 </r>
       <r>     1.0262    38.7939   354.5877 </r>
       <r>     1.1609    26.3087   358.1324 </r>
       <r>     1.2957    25.0997   361.5142 </r>
       <r>     1.4304    20.4554   364.2702 </r>
       <r>     1.5651    15.2999   366.3316 </r>
       <r>     1.6999    15.8923   368.4728 </r>
       <r>     1.8346    14.6050   370.4406 </r>
       <r>     1.9693    10.4927   371.8543 </r>
       <r>     2.1041     5.8341   372.6404 </r>
       <r>     2.2388     8.5415   373.7912 </r>
       <r>     2.3735     7.6320   374.8195 </r>
       <r>     2.5083    11.1919   376.3274 </r>
       <r>     2.6430    22.8206   379.4021 </r>
       <r>     2.7777    42.2051   385.0886 </r>
       <r>     2.9125    72.0663   394.7983 </r>
       <r>     3.0472    79.1465   405.4620 </r>
       <r>     3.1819    85.1143   416.9298 </r>
       <r>     3.3167    35.2586   421.6803 </r>
       <r>     3.4514     2.3610   421.9984 </r>
       <r>     3.5861     0.0119   422.0000 </r>
       <r>     3.7209     0.0000   422.0000 </r>
       <r>     3.8556     0.0000   422.0000 </r>
       <r>     3.9903     0.0000   422.0000 </r>
       <r>     4.1251     0.0000   422.0000 </r>
       <r>     4.2598     0.0000   422.0000 </r>
       <r>     4.3945     0.0001   422.0000 </r>
       <r>     4.5293     0.0580   422.0078 </r>
       <r>     4.6640     1.4586   422.2044 </r>
       <r>     4.7987     4.0582   422.7511 </r>
       <r>     4.9335     5.6661   423.5145 </r>
       <r>     5.0682     6.3640   424.3720 </r>
       <r>     5.2029    10.4609   425.7814 </r>
       <r>     5.3377     8.8905   426.9793 </r>
       <r>     5.4724     6.4612   427.8498 </r>
       <r>     5.6071     5.7395   428.6231 </r>
       <r>     5.7419    10.5307   430.0419 </r>
       <r>     5.8766    13.2460   431.8266 </r>
       <r>     6.0113    24.8677   435.1771 </r>
       <r>     6.1461    23.9587   438.4052 </r>
       <r>     6.2808    24.5362   441.7110 </r>
       <r>     6.4155    30.9324   445.8787 </r>
       <r>     6.5503    24.7506   449.2134 </r>
       <r>     6.6850    14.7090   451.1952 </r>
       <r>     6.8197    20.0445   453.8959 </r>
       <r>     6.9545    32.8843   458.3265 </r>
       <r>     7.0892    40.9287   463.8410 </r>
       <r>     7.2239    32.5208   468.2226 </r>
       <r>     7.3587    35.0340   472.9429 </r>
       <r>     7.4934    37.9855   478.0608 </r>
       <r>     7.6281    49.0506   484.6696 </r>
       <r>     7.7629    39.3928   489.9771 </r>
       <r>     7.8976    19.3318   492.5818 </r>
       <r>     8.0323    12.0721   494.2083 </r>
       <r>     8.1671    18.4954   496.7002 </r>
       <r>     8.3018    15.9318   498.8468 </r>
       <r>     8.4365     3.4715   499.3145 </r>
       <r>     8.5713     0.7637   499.4174 </r>
       <r>     8.7060     1.6483   499.6395 </r>
       <r>     8.8407     1.2373   499.8062 </r>
       <r>     8.9755     1.2794   499.9786 </r>
       <r>     9.1102     0.1580   499.9998 </r>
       <r>     9.2449     0.0012   500.0000 </r>
       <r>     9.3797     0.0000   500.0000 </r>
       <r>     9.5144     0.0000   500.0000 </r>
       <r>     9.6492     0.0000   500.0000 </r>
       <r>     9.7839     0.0000   500.0000 </r>
       <r>     9.9186     0.0000   500.0000 </r>
       <r>    10.0534     0.0000   500.0000 </r>
       <r>    10.1881     0.0000   500.0000 </r>
       <r>    10.3228     0.0000   500.0000 </r>
       <r>    10.4576     0.0000   500.0000 </r>
       <r>    10.5923     0.0000   500.0000 </r>
       <r>    10.7270     0.0000   500.0000 </r>
      </set>
     </set>
    </array>
   </total>
  </dos>
 </calculation>
 <structure name="finalpos" >
  <crystal>
   <varray name="basis" >
    <v>       9.28426200       0.00000000       0.00000000 </v>
    <v>       0.00000000      10.72054200       0.00000000 </v>
    <v>       0.00000000       0.00000000      18.22724200 </v>
   </varray>
   <i name="volume">   1814.19969640 </i>
   <varray name="rec_basis" >
    <v>       0.10770915       0.00000000       0.00000000 </v>
    <v>       0.00000000       0.09327887       0.00000000 </v>
    <v>       0.00000000       0.00000000       0.05486294 </v>
   </varray>
  </crystal>
  <varray name="positions" >
   <v>       0.00000000       0.00000000       0.31213000 </v>
   <v>       0.16666700       0.25000000       0.31213000 </v>
   <v>       0.99992673       0.33323298       0.43884839 </v>
   <v>       0.16665035       0.08325975       0.43848665 </v>
   <v>       0.00000000       0.16666600       0.03482200 </v>
   <v>       0.16666700       0.41666600       0.03482200 </v>
   <v>       0.00000000       0.33333300       0.17351800 </v>
   <v>       0.16666700       0.08333300       0.17351800 </v>
   <v>       0.33333300       0.00000000       0.31213000 </v>
   <v>       0.50000000       0.25000000       0.31213000 </v>
   <v>       0.33362440       0.33370797       0.44051825 </v>
   <v>       0.50008762       0.08334724       0.43823129 </v>
   <v>       0.33333300       0.16666600       0.03482200 </v>
   <v>       0.50000000       0.41666600       0.03482200 </v>
   <v>       0.33333300       0.33333400       0.17351800 </v>
   <v>       0.50000000       0.08333300       0.17351800 </v>
   <v>       0.66666700       0.00000000       0.31213000 </v>
   <v>       0.83333300       0.25000000       0.31213000 </v>
   <v>       0.66648616       0.33361019       0.43884707 </v>
   <v>       0.83326405       0.08329468       0.43863455 </v>
   <v>       0.66666700       0.16666600       0.03482200 </v>
   <v>       0.83333300       0.41666600       0.03482200 </v>
   <v>       0.66666700       0.33333300       0.17351800 </v>
   <v>       0.83333300       0.08333300       0.17351800 </v>
   <v>       0.00000000       0.50000000       0.31213000 </v>
   <v>       0.16666700       0.75000000       0.31213000 </v>
   <v>       0.99992245       0.83343727       0.43855608 </v>
   <v>       0.16709934       0.58341887       0.44352706 </v>
   <v>       0.00000000       0.66666600       0.03482200 </v>
   <v>       0.16666700       0.91666600       0.03482200 </v>
   <v>       0.00000000       0.83333300       0.17351800 </v>
   <v>       0.16666700       0.58333300       0.17351800 </v>
   <v>       0.33333300       0.50000000       0.31213000 </v>
   <v>       0.50000000       0.75000000       0.31213000 </v>
   <v>       0.33358559       0.83300480       0.44012312 </v>
   <v>       0.50008656       0.58332140       0.44887516 </v>
   <v>       0.33333300       0.66666600       0.03482200 </v>
   <v>       0.50000000       0.91666600       0.03482200 </v>
   <v>       0.33333300       0.83333300       0.17351800 </v>
   <v>       0.50000000       0.58333300       0.17351800 </v>
   <v>       0.66666700       0.50000000       0.31213000 </v>
   <v>       0.83333300       0.75000000       0.31213000 </v>
   <v>       0.66648321       0.83302598       0.43891674 </v>
   <v>       0.83289244       0.58336634       0.43918461 </v>
   <v>       0.66666700       0.66666600       0.03482200 </v>
   <v>       0.83333300       0.91666600       0.03482200 </v>
   <v>       0.66666700       0.83333300       0.17351800 </v>
   <v>       0.83333300       0.58333300       0.17351800 </v>
   <v>       0.49776179       0.58355509       0.53064896 </v>
   <v>       0.00000000       0.00000000       0.00000000 </v>
   <v>       0.16666700       0.25000000       0.00000000 </v>
   <v>       0.00000000       0.00000000       0.41654900 </v>
   <v>       0.16666700       0.25000000       0.41654900 </v>
   <v>       0.00000000       0.16666600       0.13894900 </v>
   <v>       0.16666700       0.41666600       0.13894900 </v>
   <v>       0.00000000       0.33333300       0.27764900 </v>
   <v>       0.16666700       0.08333300       0.27764900 </v>
   <v>       0.33333300       0.00000000       0.00000000 </v>
   <v>       0.50000000       0.25000000       0.00000000 </v>
   <v>       0.33333300       0.00000000       0.41654900 </v>
   <v>       0.50000000       0.25000000       0.41654900 </v>
   <v>       0.33333300       0.16666600       0.13894900 </v>
   <v>       0.50000000       0.41666600       0.13894900 </v>
   <v>       0.33333300       0.33333400       0.27764900 </v>
   <v>       0.50000000       0.08333300       0.27764900 </v>
   <v>       0.66666700       0.00000000       0.00000000 </v>
   <v>       0.83333300       0.25000000       0.00000000 </v>
   <v>       0.66666700       0.00000000       0.41654900 </v>
   <v>       0.83333300       0.25000000       0.41654900 </v>
   <v>       0.66666700       0.16666600       0.13894900 </v>
   <v>       0.83333300       0.41666600       0.13894900 </v>
   <v>       0.66666700       0.33333300       0.27764900 </v>
   <v>       0.83333300       0.08333300       0.27764900 </v>
   <v>       0.00000000       0.50000000       0.00000000 </v>
   <v>       0.16666700       0.75000000       0.00000000 </v>
   <v>       0.00000000       0.50000000       0.41654900 </v>
   <v>       0.16666700       0.75000000       0.41654900 </v>
   <v>       0.00000000       0.66666600       0.13894900 </v>
   <v>       0.16666700       0.91666600       0.13894900 </v>
   <v>       0.00000000       0.83333300       0.27764900 </v>
   <v>       0.16666700       0.58333300       0.27764900 </v>
   <v>       0.33333300       0.50000000       0.00000000 </v>
   <v>       0.50000000       0.75000000       0.00000000 </v>
   <v>       0.33333300       0.50000000       0.41654900 </v>
   <v>       0.50000000       0.75000000       0.41654900 </v>
   <v>       0.33333300       0.66666600       0.13894900 </v>
   <v>       0.50000000       0.91666600       0.13894900 </v>
   <v>       0.33333300       0.83333300       0.27764900 </v>
   <v>       0.50000000       0.58333300       0.27764900 </v>
   <v>       0.66666700       0.50000000       0.00000000 </v>
   <v>       0.83333300       0.75000000       0.00000000 </v>
   <v>       0.66666700       0.50000000       0.41654900 </v>
   <v>       0.83333300       0.75000000       0.41654900 </v>
   <v>       0.66666700       0.66666600       0.13894900 </v>
   <v>       0.83333300       0.91666600       0.13894900 </v>
   <v>       0.66666700       0.83333300       0.27764900 </v>
   <v>       0.83333300       0.58333300       0.27764900 </v>
   <v>       0.24069789       0.57641217       0.59200995 </v>
  </varray>
  <varray name="selective"  type="logical" >
   <v type="logical" >  F  F  F </v>
   <v type="logical" >  F  F  F </v>
   <v type="logical" >  T  T  T </v>
   <v type="logical" >  T  T  T </v>
   <v type="logical" >  F  F  F </v>
   <v type="logical" >  F  F  F </v>
   <v type="logical" >  F  F  F </v>
   <v type="logical" >  F  F  F </v>
   <v type="logical" >  F  F  F </v>
   <v type="logical" >  F  F  F </v>
   <v type="logical" >  T  T  T </v>
   <v type="logical" >  T  T  T </v>
   <v type="logical" >  F  F  F </v>
   <v type="logical" >  F  F  F </v>
   <v type="logical" >  F  F  F </v>
   <v type="logical" >  F  F  F </v>
   <v type="logical" >  F  F  F </v>
   <v type="logical" >  F  F  F </v>
   <v type="logical" >  T  T  T </v>
   <v type="logical" >  T  T  T </v>
   <v type="logical" >  F  F  F </v>
   <v type="logical" >  F  F  F </v>
   <v type="logical" >  F  F  F </v>
   <v type="logical" >  F  F  F </v>
   <v type="logical" >  F  F  F </v>
   <v type="logical" >  F  F  F </v>
   <v type="logical" >  T  T  T </v>
   <v type="logical" >  T  T  T </v>
   <v type="logical" >  F  F  F </v>
   <v type="logical" >  F  F  F </v>
   <v type="logical" >  F  F  F </v>
   <v type="logical" >  F  F  F </v>
   <v type="logical" >  F  F  F </v>
   <v type="logical" >  F  F  F </v>
   <v type="logical" >  T  T  T </v>
   <v type="logical" >  T  T  T </v>
   <v type="logical" >  F  F  F </v>
   <v type="logical" >  F  F  F </v>
   <v type="logical" >  F  F  F </v>
   <v type="logical" >  F  F  F </v>
   <v type="logical" >  F  F  F </v>
   <v type="logical" >  F  F  F </v>
   <v type="logical" >  T  T  T </v>
   <v type="logical" >  T  T  T </v>
   <v type="logical" >  F  F  F </v>
   <v type="logical" >  F  F  F </v>
   <v type="logical" >  F  F  F </v>
   <v type="logical" >  F  F  F </v>
   <v type="logical" >  T  T  T </v>
   <v type="logical" >  F  F  F </v>
   <v type="logical" >  F  F  F </v>
   <v type="logical" >  F  F  F </v>
   <v type="logical" >  F  F  F </v>
   <v type="logical" >  F  F  F </v>
   <v type="logical" >  F  F  F </v>
   <v type="logical" >  F  F  F </v>
   <v type="logical" >  F  F  F </v>
   <v type="logical" >  F  F  F </v>
   <v type="logical" >  F  F  F </v>
   <v type="logical" >  F  F  F </v>
   <v type="logical" >  F  F  F </v>
   <v type="logical" >  F  F  F </v>
   <v type="logical" >  F  F  F </v>
   <v type="logical" >  F  F  F </v>
   <v type="logical" >  F  F  F </v>
   <v type="logical" >  F  F  F </v>
   <v type="logical" >  F  F  F </v>
   <v type="logical" >  F  F  F </v>
   <v type="logical" >  F  F  F </v>
   <v type="logical" >  F  F  F </v>
   <v type="logical" >  F  F  F </v>
   <v type="logical" >  F  F  F </v>
   <v type="logical" >  F  F  F </v>
   <v type="logical" >  F  F  F </v>
   <v type="logical" >  F  F  F </v>
   <v type="logical" >  F  F  F </v>
   <v type="logical" >  F  F  F </v>
   <v type="logical" >  F  F  F </v>
   <v type="logical" >  F  F  F </v>
   <v type="logical" >  F  F  F </v>
   <v type="logical" >  F  F  F </v>
   <v type="logical" >  F  F  F </v>
   <v type="logical" >  F  F  F </v>
   <v type="logical" >  F  F  F </v>
   <v type="logical" >  F  F  F </v>
   <v type="logical" >  F  F  F </v>
   <v type="logical" >  F  F  F </v>
   <v type="logical" >  F  F  F </v>
   <v type="logical" >  F  F  F </v>
   <v type="logical" >  F  F  F </v>
   <v type="logical" >  F  F  F </v>
   <v type="logical" >  F  F  F </v>
   <v type="logical" >  F  F  F </v>
   <v type="logical" >  F  F  F </v>
   <v type="logical" >  F  F  F </v>
   <v type="logical" >  F  F  F </v>
   <v type="logical" >  F  F  F </v>
   <v type="logical" >  T  T  T </v>
  </varray>
  <nose>
   <v>      -3.00000000       0.00000000       0.00010000       0.00010000 </v>
  </nose>
 </structure>
</modeling>
