  98  98   0   0
  0.1980059E+02  0.9284250E-09  0.1072053E-08  0.1949580E-08  0.5000000E-15
  1.000000000000000E-004
  CAR 
 ni3al                                   
      8.61958527    -31.08729303  301      1.93254520      1.00000000
    -31.087  0.0000E+00  0.0000E+00
    -30.955  0.0000E+00  0.0000E+00
    -30.823  0.0000E+00  0.0000E+00
    -30.690  0.0000E+00  0.0000E+00
    -30.558  0.0000E+00  0.0000E+00
    -30.426  0.0000E+00  0.0000E+00
    -30.293  0.0000E+00  0.0000E+00
    -30.161  0.0000E+00  0.0000E+00
    -30.028  0.0000E+00  0.0000E+00
    -29.896  0.0000E+00  0.0000E+00
    -29.764  0.0000E+00  0.0000E+00
    -29.631  0.0000E+00  0.0000E+00
    -29.499  0.0000E+00  0.0000E+00
    -29.367  0.0000E+00  0.0000E+00
    -29.234  0.1511E+02  0.2000E+01
    -29.102  0.0000E+00  0.2000E+01
    -28.970  0.0000E+00  0.2000E+01
    -28.837  0.0000E+00  0.2000E+01
    -28.705  0.0000E+00  0.2000E+01
    -28.573  0.0000E+00  0.2000E+01
    -28.440  0.0000E+00  0.2000E+01
    -28.308  0.0000E+00  0.2000E+01
    -28.175  0.0000E+00  0.2000E+01
    -28.043  0.0000E+00  0.2000E+01
    -27.911  0.0000E+00  0.2000E+01
    -27.778  0.0000E+00  0.2000E+01
    -27.646  0.0000E+00  0.2000E+01
    -27.514  0.0000E+00  0.2000E+01
    -27.381  0.0000E+00  0.2000E+01
    -27.249  0.0000E+00  0.2000E+01
    -27.117  0.0000E+00  0.2000E+01
    -26.984  0.0000E+00  0.2000E+01
    -26.852  0.0000E+00  0.2000E+01
    -26.720  0.0000E+00  0.2000E+01
    -26.587  0.0000E+00  0.2000E+01
    -26.455  0.0000E+00  0.2000E+01
    -26.322  0.0000E+00  0.2000E+01
    -26.190  0.0000E+00  0.2000E+01
    -26.058  0.0000E+00  0.2000E+01
    -25.925  0.0000E+00  0.2000E+01
    -25.793  0.0000E+00  0.2000E+01
    -25.661  0.0000E+00  0.2000E+01
    -25.528  0.0000E+00  0.2000E+01
    -25.396  0.0000E+00  0.2000E+01
    -25.264  0.0000E+00  0.2000E+01
    -25.131  0.0000E+00  0.2000E+01
    -24.999  0.0000E+00  0.2000E+01
    -24.867  0.0000E+00  0.2000E+01
    -24.734  0.0000E+00  0.2000E+01
    -24.602  0.0000E+00  0.2000E+01
    -24.469  0.0000E+00  0.2000E+01
    -24.337  0.0000E+00  0.2000E+01
    -24.205  0.0000E+00  0.2000E+01
    -24.072  0.0000E+00  0.2000E+01
    -23.940  0.0000E+00  0.2000E+01
    -23.808  0.0000E+00  0.2000E+01
    -23.675  0.0000E+00  0.2000E+01
    -23.543  0.1511E+02  0.4000E+01
    -23.411  0.0000E+00  0.4000E+01
    -23.278  0.0000E+00  0.4000E+01
    -23.146  0.0000E+00  0.4000E+01
    -23.014  0.0000E+00  0.4000E+01
    -22.881  0.0000E+00  0.4000E+01
    -22.749  0.0000E+00  0.4000E+01
    -22.616  0.0000E+00  0.4000E+01
    -22.484  0.0000E+00  0.4000E+01
    -22.352  0.0000E+00  0.4000E+01
    -22.219  0.0000E+00  0.4000E+01
    -22.087  0.0000E+00  0.4000E+01
    -21.955  0.0000E+00  0.4000E+01
    -21.822  0.0000E+00  0.4000E+01
    -21.690  0.0000E+00  0.4000E+01
    -21.558  0.0000E+00  0.4000E+01
    -21.425  0.0000E+00  0.4000E+01
    -21.293  0.0000E+00  0.4000E+01
    -21.161  0.0000E+00  0.4000E+01
    -21.028  0.0000E+00  0.4000E+01
    -20.896  0.0000E+00  0.4000E+01
    -20.764  0.0000E+00  0.4000E+01
    -20.631  0.0000E+00  0.4000E+01
    -20.499  0.0000E+00  0.4000E+01
    -20.366  0.0000E+00  0.4000E+01
    -20.234  0.0000E+00  0.4000E+01
    -20.102  0.0000E+00  0.4000E+01
    -19.969  0.0000E+00  0.4000E+01
    -19.837  0.0000E+00  0.4000E+01
    -19.705  0.0000E+00  0.4000E+01
    -19.572  0.0000E+00  0.4000E+01
    -19.440  0.0000E+00  0.4000E+01
    -19.308  0.0000E+00  0.4000E+01
    -19.175  0.0000E+00  0.4000E+01
    -19.043  0.0000E+00  0.4000E+01
    -18.911  0.0000E+00  0.4000E+01
    -18.778  0.0000E+00  0.4000E+01
    -18.646  0.0000E+00  0.4000E+01
    -18.513  0.0000E+00  0.4000E+01
    -18.381  0.0000E+00  0.4000E+01
    -18.249  0.0000E+00  0.4000E+01
    -18.116  0.0000E+00  0.4000E+01
    -17.984  0.0000E+00  0.4000E+01
    -17.852  0.0000E+00  0.4000E+01
    -17.719  0.0000E+00  0.4000E+01
    -17.587  0.0000E+00  0.4000E+01
    -17.455  0.0000E+00  0.4000E+01
    -17.322  0.0000E+00  0.4000E+01
    -17.190  0.0000E+00  0.4000E+01
    -17.058  0.0000E+00  0.4000E+01
    -16.925  0.0000E+00  0.4000E+01
    -16.793  0.0000E+00  0.4000E+01
    -16.660  0.0000E+00  0.4000E+01
    -16.528  0.0000E+00  0.4000E+01
    -16.396  0.0000E+00  0.4000E+01
    -16.263  0.0000E+00  0.4000E+01
    -16.131  0.0000E+00  0.4000E+01
    -15.999  0.0000E+00  0.4000E+01
    -15.866  0.0000E+00  0.4000E+01
    -15.734  0.0000E+00  0.4000E+01
    -15.602  0.0000E+00  0.4000E+01
    -15.469  0.0000E+00  0.4000E+01
    -15.337  0.0000E+00  0.4000E+01
    -15.205  0.0000E+00  0.4000E+01
    -15.072  0.0000E+00  0.4000E+01
    -14.940  0.0000E+00  0.4000E+01
    -14.807  0.0000E+00  0.4000E+01
    -14.675  0.0000E+00  0.4000E+01
    -14.543  0.0000E+00  0.4000E+01
    -14.410  0.0000E+00  0.4000E+01
    -14.278  0.0000E+00  0.4000E+01
    -14.146  0.0000E+00  0.4000E+01
    -14.013  0.0000E+00  0.4000E+01
    -13.881  0.0000E+00  0.4000E+01
    -13.749  0.0000E+00  0.4000E+01
    -13.616  0.5995E+01  0.4339E+01
    -13.484  0.6447E+01  0.5271E+01
    -13.352  0.3532E+01  0.5785E+01
    -13.219  0.1177E+02  0.6464E+01
    -13.087  0.3730E+01  0.7459E+01
    -12.954  0.2331E+01  0.7860E+01
    -12.822  0.2574E+02  0.9367E+01
    -12.690  0.5237E+02  0.1605E+02
    -12.557  0.8749E+01  0.1746E+02
    -12.425  0.1531E+02  0.1898E+02
    -12.293  0.1881E+02  0.2073E+02
    -12.160  0.5875E+01  0.2208E+02
    -12.028  0.1036E+02  0.2288E+02
    -11.896  0.2070E+02  0.2488E+02
    -11.763  0.5112E+01  0.2643E+02
    -11.631  0.1685E+02  0.2756E+02
    -11.499  0.1888E+02  0.2989E+02
    -11.366  0.1796E+02  0.3202E+02
    -11.234  0.1285E+02  0.3374E+02
    -11.101  0.3240E+02  0.3653E+02
    -10.969  0.1593E+02  0.3881E+02
    -10.837  0.2204E+02  0.4125E+02
    -10.704  0.2865E+02  0.4496E+02
    -10.572  0.2052E+02  0.4724E+02
    -10.440  0.2207E+02  0.5013E+02
    -10.307  0.1836E+02  0.5291E+02
    -10.175  0.2033E+02  0.5587E+02
    -10.043  0.2898E+02  0.5878E+02
     -9.910  0.3817E+02  0.6360E+02
     -9.778  0.1024E+02  0.6597E+02
     -9.646  0.2299E+02  0.6878E+02
     -9.513  0.2136E+02  0.7113E+02
     -9.381  0.3942E+02  0.7503E+02
     -9.249  0.2602E+02  0.7868E+02
     -9.116  0.1511E+02  0.8200E+02
     -8.984  0.0000E+00  0.8200E+02
     -8.851  0.0000E+00  0.8200E+02
     -8.719  0.0000E+00  0.8200E+02
     -8.587  0.0000E+00  0.8200E+02
     -8.454  0.3923E+00  0.8200E+02
     -8.322  0.1028E+02  0.8300E+02
     -8.190  0.4994E+01  0.8381E+02
     -8.057  0.1186E+02  0.8520E+02
     -7.925  0.3104E+01  0.8586E+02
     -7.793  0.1738E+02  0.8729E+02
     -7.660  0.1474E+02  0.8942E+02
     -7.528  0.5763E+02  0.9425E+02
     -7.396  0.1336E+03  0.1054E+03
     -7.263  0.1287E+02  0.1080E+03
     -7.131  0.3802E+02  0.1095E+03
     -6.998  0.0000E+00  0.1100E+03
     -6.866  0.1836E+02  0.1114E+03
     -6.734  0.9075E+01  0.1123E+03
     -6.601  0.1229E+02  0.1138E+03
     -6.469  0.1277E+02  0.1157E+03
     -6.337  0.1454E+02  0.1173E+03
     -6.204  0.1910E+02  0.1201E+03
     -6.072  0.3597E+02  0.1236E+03
     -5.940  0.1785E+02  0.1262E+03
     -5.807  0.3187E+02  0.1299E+03
     -5.675  0.3363E+02  0.1336E+03
     -5.543  0.3501E+02  0.1371E+03
     -5.410  0.3490E+02  0.1408E+03
     -5.278  0.2395E+02  0.1435E+03
     -5.145  0.2042E+02  0.1460E+03
     -5.013  0.2893E+02  0.1491E+03
     -4.881  0.4390E+02  0.1527E+03
     -4.748  0.6148E+02  0.1583E+03
     -4.616  0.2957E+02  0.1631E+03
     -4.484  0.5935E+02  0.1684E+03
     -4.351  0.6275E+02  0.1727E+03
     -4.219  0.3981E+02  0.1776E+03
     -4.087  0.2977E+02  0.1811E+03
     -3.954  0.4066E+02  0.1840E+03
     -3.822  0.3055E+02  0.1877E+03
     -3.690  0.2369E+02  0.1906E+03
     -3.557  0.1989E+02  0.1932E+03
     -3.425  0.1208E+02  0.1957E+03
     -3.292  0.1826E+02  0.1978E+03
     -3.160  0.2291E+02  0.2006E+03
     -3.028  0.2087E+02  0.2034E+03
     -2.895  0.3617E+02  0.2069E+03
     -2.763  0.6242E+02  0.2128E+03
     -2.631  0.5401E+02  0.2207E+03
     -2.498  0.4377E+02  0.2269E+03
     -2.366  0.5325E+02  0.2324E+03
     -2.234  0.2540E+02  0.2368E+03
     -2.101  0.1722E+02  0.2392E+03
     -1.969  0.4799E+02  0.2432E+03
     -1.837  0.4493E+02  0.2479E+03
     -1.704  0.5685E+02  0.2533E+03
     -1.572  0.5499E+02  0.2600E+03
     -1.439  0.4603E+02  0.2658E+03
     -1.307  0.3803E+02  0.2704E+03
     -1.175  0.6045E+02  0.2765E+03
     -1.042  0.6303E+02  0.2826E+03
     -0.910  0.6222E+02  0.2901E+03
     -0.778  0.4443E+02  0.2956E+03
     -0.645  0.4872E+02  0.3015E+03
     -0.513  0.3686E+02  0.3061E+03
     -0.381  0.4222E+02  0.3107E+03
     -0.248  0.6982E+02  0.3170E+03
     -0.116  0.7322E+02  0.3249E+03
      0.016  0.4708E+02  0.3297E+03
      0.149  0.5373E+02  0.3364E+03
      0.281  0.2825E+02  0.3406E+03
      0.413  0.2290E+02  0.3435E+03
      0.546  0.2651E+02  0.3469E+03
      0.678  0.2848E+02  0.3501E+03
      0.811  0.6674E+02  0.3553E+03
      0.943  0.1763E+02  0.3600E+03
      1.075  0.1219E+03  0.3675E+03
      1.208  0.5695E+02  0.3743E+03
      1.340  0.7245E+02  0.3805E+03
      1.472  0.2419E+02  0.3841E+03
      1.605  0.8125E+02  0.3904E+03
      1.737  0.3221E+02  0.3962E+03
      1.869  0.2663E+02  0.3981E+03
      2.002  0.2420E+02  0.4021E+03
      2.134  0.1750E+02  0.4042E+03
      2.266  0.2210E+02  0.4062E+03
      2.399  0.2010E+02  0.4091E+03
      2.531  0.1947E+02  0.4118E+03
      2.664  0.1620E+02  0.4142E+03
      2.796  0.1441E+02  0.4160E+03
      2.928  0.4178E+02  0.4189E+03
      3.061  0.1937E+02  0.4206E+03
      3.193  0.2055E+02  0.4228E+03
      3.325  0.1950E+02  0.4244E+03
      3.458  0.4094E+02  0.4286E+03
      3.590  0.3207E+02  0.4319E+03
      3.722  0.2417E+02  0.4350E+03
      3.855  0.4448E+02  0.4397E+03
      3.987  0.3434E+02  0.4448E+03
      4.119  0.3280E+02  0.4471E+03
      4.252  0.2546E+02  0.4508E+03
      4.384  0.1599E+02  0.4535E+03
      4.517  0.2073E+02  0.4556E+03
      4.649  0.3389E+02  0.4585E+03
      4.781  0.4946E+01  0.4599E+03
      4.914  0.2656E+02  0.4619E+03
      5.046  0.1872E+02  0.4636E+03
      5.178  0.2337E+02  0.4672E+03
      5.311  0.3207E+02  0.4698E+03
      5.443  0.3829E+02  0.4730E+03
      5.575  0.2778E+02  0.4764E+03
      5.708  0.2674E+02  0.4799E+03
      5.840  0.3852E+02  0.4844E+03
      5.972  0.2132E+02  0.4872E+03
      6.105  0.3496E+02  0.4910E+03
      6.237  0.2601E+02  0.4949E+03
      6.370  0.2671E+02  0.4982E+03
      6.502  0.2161E+02  0.5019E+03
      6.634  0.8683E+01  0.5033E+03
      6.767  0.3878E+01  0.5038E+03
      6.899  0.0000E+00  0.5040E+03
      7.031  0.0000E+00  0.5040E+03
      7.164  0.0000E+00  0.5040E+03
      7.296  0.0000E+00  0.5040E+03
      7.428  0.0000E+00  0.5040E+03
      7.561  0.0000E+00  0.5040E+03
      7.693  0.0000E+00  0.5040E+03
      7.825  0.0000E+00  0.5040E+03
      7.958  0.0000E+00  0.5040E+03
      8.090  0.0000E+00  0.5040E+03
      8.223  0.0000E+00  0.5040E+03
      8.355  0.0000E+00  0.5040E+03
      8.487  0.0000E+00  0.5040E+03
      8.620  0.0000E+00  0.5040E+03
