 vasp.6.3.2 27Jun22 (build Mar 15 2023 15:45:48) complex                        
  
 executed on             LinuxIFC date 2024.07.19  23:45:24
 running on    4 total cores
 distrk:  each k-point on    4 cores,    1 groups
 distr:  one band on NCORE=   1 cores,    4 groups


--------------------------------------------------------------------------------------------------------


 INCAR:
   SYSTEM = ni3al
   PREC = Accurate
   EDIFF = 1E-6
   EDIFFG = -1E-2
   ISTART = 0
   ICHARG = 2
   LREAL = Auto
   NSW = 0
   ISIF = 2
   IBRION = -1
   ISMEAR = -5
   SIGMA = 0.1
   ENCUT = 530
   ALGO = Fast
   LMAXMIX = 4
   AMIN = 0.01
   NELM = 150
   LCHARG = .F.
   LWAVE = .F.
   NCORE = 4
   KPAR = 1
   LELF = .T.

 POTCAR:   PAW_PBE C 08Apr2002                    
 POTCAR:   PAW_PBE F 08Apr2002                    
 POTCAR:   PAW_PBE Si 05Jan2001                   
 POTCAR:   PAW_PBE K_sv 06Sep2000                 
 POTCAR:   PAW_PBE C 08Apr2002                    
   VRHFIN =C: s2p2                                                                                  
   LEXCH  = PE                                                                                      
   EATOM  =   147.1560 eV,   10.8157 Ry                                                             
                                                                                                    
   TITEL  = PAW_PBE C 08Apr2002                                                                     
   LULTRA =        F    use ultrasoft PP ?                                                          
   IUNSCR =        0    unscreen: 0-lin 1-nonlin 2-no                                               
   RPACOR =     .000    partial core radius                                                         
   POMASS =   12.011; ZVAL   =    4.000    mass and valenz                                          
   RCORE  =    1.500    outmost cutoff radius                                                       
   RWIGS  =    1.630; RWIGS  =     .863    wigner-seitz radius (au A)                               
   ENMAX  =  400.000; ENMIN  =  300.000 eV                                                          
   ICORE  =        2    local potential                                                             
   LCOR   =        T    correct aug charges                                                         
   LPAW   =        T    paw PP                                                                      
   EAUG   =  644.873                                                                                
   DEXC   =     .000                                                                                
   RMAX   =    2.266    core radius for proj-oper                                                   
   RAUG   =    1.300    factor for augmentation sphere                                              
   RDEP   =    1.501    radius for radial grids                                                     
   RDEPT  =    1.300    core radius for aug-charge                                                  
   QCUT   =   -5.516; QGAM   =   11.032    optimization parameters                                  
                                                                                                    
   Description                                                                                      
     l     E      TYP  RCUT    TYP  RCUT                                                            
     0   .000     23  1.200                                                                         
     0   .000     23  1.200                                                                         
     1   .000     23  1.500                                                                         
     1  2.500     23  1.500                                                                         
     2   .000      7  1.500                                                                         
  local pseudopotential read in
  atomic valenz-charges read in
  non local Contribution for L=           0  read in
    real space projection operators read in
  non local Contribution for L=           0  read in
    real space projection operators read in
  non local Contribution for L=           1  read in
    real space projection operators read in
  non local Contribution for L=           1  read in
    real space projection operators read in
    PAW grid and wavefunctions read in
 
   number of l-projection  operators is LMAX  =           4
   number of lm-projection operators is LMMAX =           8
 
 POTCAR:   PAW_PBE F 08Apr2002                    
   VRHFIN =F: s2p5                                                                                  
   LEXCH  = PE                                                                                      
   EATOM  =   659.4942 eV,   48.4715 Ry                                                             
                                                                                                    
   TITEL  = PAW_PBE F 08Apr2002                                                                     
   LULTRA =        F    use ultrasoft PP ?                                                          
   IUNSCR =        0    unscreen: 0-lin 1-nonlin 2-no                                               
   RPACOR =     .000    partial core radius                                                         
   POMASS =   18.998; ZVAL   =    7.000    mass and valenz                                          
   RCORE  =    1.520    outmost cutoff radius                                                       
   RWIGS  =    1.500; RWIGS  =     .794    wigner-seitz radius (au A)                               
   ENMAX  =  400.000; ENMIN  =  300.000 eV                                                          
   ICORE  =        2    local potential                                                             
   LCOR   =        T    correct aug charges                                                         
   LPAW   =        T    paw PP                                                                      
   EAUG   =  613.614                                                                                
   DEXC   =     .000                                                                                
   RMAX   =    2.254    core radius for proj-oper                                                   
   RAUG   =    1.300    factor for augmentation sphere                                              
   RDEP   =    1.539    radius for radial grids                                                     
   QCUT   =   -5.545; QGAM   =   11.091    optimization parameters                                  
                                                                                                    
   Description                                                                                      
     l     E      TYP  RCUT    TYP  RCUT                                                            
     0   .000     23  1.200                                                                         
     0  -.700     23  1.200                                                                         
     1   .000     23  1.520                                                                         
     1   .100     23  1.520                                                                         
     2   .000      7  1.500                                                                         
  local pseudopotential read in
  atomic valenz-charges read in
  non local Contribution for L=           0  read in
    real space projection operators read in
  non local Contribution for L=           0  read in
    real space projection operators read in
  non local Contribution for L=           1  read in
    real space projection operators read in
  non local Contribution for L=           1  read in
    real space projection operators read in
    PAW grid and wavefunctions read in
 
   number of l-projection  operators is LMAX  =           4
   number of lm-projection operators is LMMAX =           8
 
 POTCAR:   PAW_PBE Si 05Jan2001                   
   VRHFIN =Si: s2p2                                                                                 
   LEXCH  = PE                                                                                      
   EATOM  =   103.0669 eV,    7.5752 Ry                                                             
                                                                                                    
   TITEL  = PAW_PBE Si 05Jan2001                                                                    
   LULTRA =        F    use ultrasoft PP ?                                                          
   IUNSCR =        1    unscreen: 0-lin 1-nonlin 2-no                                               
   RPACOR =    1.500    partial core radius                                                         
   POMASS =   28.085; ZVAL   =    4.000    mass and valenz                                          
   RCORE  =    1.900    outmost cutoff radius                                                       
   RWIGS  =    2.480; RWIGS  =    1.312    wigner-seitz radius (au A)                               
   ENMAX  =  245.345; ENMIN  =  184.009 eV                                                          
   ICORE  =        2    local potential                                                             
   LCOR   =        T    correct aug charges                                                         
   LPAW   =        T    paw PP                                                                      
   EAUG   =  322.069                                                                                
   DEXC   =    -.007                                                                                
   RMAX   =    2.944    core radius for proj-oper                                                   
   RAUG   =    1.300    factor for augmentation sphere                                              
   RDEP   =    1.993    radius for radial grids                                                     
   QCUT   =   -4.246; QGAM   =    8.493    optimization parameters                                  
                                                                                                    
   Description                                                                                      
     l     E      TYP  RCUT    TYP  RCUT                                                            
     0   .000     23  1.900                                                                         
     0   .000     23  1.900                                                                         
     1   .000     23  1.900                                                                         
     1   .000     23  1.900                                                                         
     2   .000      7  1.900                                                                         
  local pseudopotential read in
  partial core-charges read in
  atomic valenz-charges read in
  non local Contribution for L=           0  read in
    real space projection operators read in
  non local Contribution for L=           0  read in
    real space projection operators read in
  non local Contribution for L=           1  read in
    real space projection operators read in
  non local Contribution for L=           1  read in
    real space projection operators read in
    PAW grid and wavefunctions read in
 
   number of l-projection  operators is LMAX  =           4
   number of lm-projection operators is LMMAX =           8
 
 POTCAR:   PAW_PBE K_sv 06Sep2000                 
   VRHFIN =K:  3s3p4s                                                                               
   LEXCH  = PE                                                                                      
   EATOM  =   774.7423 eV,   56.9420 Ry                                                             
                                                                                                    
   TITEL  = PAW_PBE K_sv 06Sep2000                                                                  
   LULTRA =        F    use ultrasoft PP ?                                                          
   IUNSCR =        1    unscreen: 0-lin 1-nonlin 2-no                                               
   RPACOR =    2.200    partial core radius                                                         
   POMASS =   39.098; ZVAL   =    9.000    mass and valenz                                          
   RCORE  =    2.300    outmost cutoff radius                                                       
   RWIGS  =    3.000; RWIGS  =    1.588    wigner-seitz radius (au A)                               
   ENMAX  =  259.216; ENMIN  =  194.412 eV                                                          
   RCLOC  =    2.005    cutoff for local pot                                                        
   LCOR   =        T    correct aug charges                                                         
   LPAW   =        T    paw PP                                                                      
   EAUG   =  427.853                                                                                
   DEXC   =     .000                                                                                
   RMAX   =    2.864    core radius for proj-oper                                                   
   RAUG   =    1.300    factor for augmentation sphere                                              
   RDEP   =    2.372    radius for radial grids                                                     
   QCUT   =   -4.365; QGAM   =    8.730    optimization parameters                                  
                                                                                                    
   Description                                                                                      
     l     E      TYP  RCUT    TYP  RCUT                                                            
     0   .000     23  2.300                                                                         
     0   .000     23  2.300                                                                         
     1   .000     23  2.300                                                                         
     1 -1.500     23  2.300                                                                         
     2   .000     23  2.300                                                                         
  local pseudopotential read in
  partial core-charges read in
  atomic valenz-charges read in
  non local Contribution for L=           0  read in
    real space projection operators read in
  non local Contribution for L=           0  read in
    real space projection operators read in
  non local Contribution for L=           1  read in
    real space projection operators read in
  non local Contribution for L=           1  read in
    real space projection operators read in
  non local Contribution for L=           2  read in
    real space projection operators read in
    PAW grid and wavefunctions read in
 
   number of l-projection  operators is LMAX  =           5
   number of lm-projection operators is LMMAX =          13
 
 Optimization of the real space projectors (new method)

 maximal supplied QI-value         = 25.13
 optimisation between [QCUT,QGAM] = [ 11.56, 23.37] = [ 37.43,152.99] Ry 
 Optimized for a Real-space Cutoff    1.07 Angstroem

   l    n(q)    QCUT    max X(q) W(low)/X(q) W(high)/X(q)  e(spline) 
   0      7    11.561     5.582    0.43E-04    0.82E-04    0.19E-07
   0      7    11.561    69.432    0.18E-03    0.47E-03    0.23E-06
   1      7    11.561     2.780    0.18E-04    0.55E-04    0.48E-07
   1      7    11.561     4.549    0.18E-03    0.21E-03    0.13E-06
 Optimization of the real space projectors (new method)

 maximal supplied QI-value         = 24.76
 optimisation between [QCUT,QGAM] = [ 11.64, 23.52] = [ 37.91,154.88] Ry 
 Optimized for a Real-space Cutoff    1.07 Angstroem

   l    n(q)    QCUT    max X(q) W(low)/X(q) W(high)/X(q)  e(spline) 
   0      7    11.635     4.906    0.42E-04    0.10E-03    0.40E-07
   0      7    11.635     5.365    0.10E-03    0.31E-03    0.19E-06
   1      7    11.635     2.511    0.38E-04    0.13E-03    0.21E-07
   1      7    11.635     3.801    0.24E-03    0.28E-03    0.21E-06
 Optimization of the real space projectors (new method)

 maximal supplied QI-value         = 19.84
 optimisation between [QCUT,QGAM] = [ 11.71, 23.41] = [ 38.38,153.51] Ry 
 Optimized for a Real-space Cutoff    1.20 Angstroem

   l    n(q)    QCUT    max X(q) W(low)/X(q) W(high)/X(q)  e(spline) 
   0      8    11.707     8.708    0.17E-04    0.67E-05    0.45E-08
   0      8    11.707   106.241    0.59E-04    0.18E-03    0.53E-07
   1      8    11.707     5.901    0.60E-05    0.19E-04    0.21E-07
   1      8    11.707    73.241    0.22E-03    0.21E-04    0.75E-07
 Optimization of the real space projectors (new method)

 maximal supplied QI-value         = 16.25
 optimisation between [QCUT,QGAM] = [ 11.70, 23.56] = [ 38.34,155.50] Ry 
 Optimized for a Real-space Cutoff    1.35 Angstroem

   l    n(q)    QCUT    max X(q) W(low)/X(q) W(high)/X(q)  e(spline) 
   0     10    11.701     6.336    0.13E-04    0.76E-05    0.61E-08
   0     10    11.701    13.439    0.24E-04    0.57E-04    0.47E-07
   1      9    11.701     3.724    0.22E-04    0.12E-04    0.26E-07
   1      9    11.701    38.716    0.12E-03    0.50E-03    0.44E-06
   2      9    11.701     3.434    0.48E-04    0.68E-04    0.36E-07
 PAW_PBE C 08Apr2002                    :
 energy of atom  1       EATOM= -147.1560
 kinetic energy error for atom=    0.0069 (will be added to EATOM!!)
 PAW_PBE F 08Apr2002                    :
 energy of atom  2       EATOM= -659.4942
 kinetic energy error for atom=    0.0313 (will be added to EATOM!!)
 PAW_PBE Si 05Jan2001                   :
 energy of atom  3       EATOM= -103.0669
 kinetic energy error for atom=    0.0005 (will be added to EATOM!!)
 PAW_PBE K_sv 06Sep2000                 :
 energy of atom  4       EATOM= -774.7423
 kinetic energy error for atom=    0.0012 (will be added to EATOM!!)
 
 
 POSCAR: POSCAR
  positions in direct lattice
  velocities in cartesian coordinates
 exchange correlation table for  LEXCH =        8
   RHO(1)=    0.500       N(1)  =     2000
   RHO(2)=  100.500       N(2)  =     4000

 VTST: version 4.2, (08/11/21)

 CHAIN: initializing optimizer
 
 OPT: Using VASP Dynamics algorithm
 CHAIN: Read ICHAIN            0
 
 POSCAR: POSCAR
  positions in direct lattice
  velocities in cartesian coordinates
 


--------------------------------------------------------------------------------------------------------


 ion  position               nearest neighbor table
   1  0.000  0.000  0.000-  50 1.90
   2  0.167  0.250  0.000-  51 1.90
   3  0.000  0.000  0.389-  80 1.89  57 1.89  73 1.89  52 1.91
   4  0.167  0.250  0.389-  53 1.89  64 1.89  57 1.89  56 1.89
   5  0.000  0.167  0.130-  50 1.90  51 1.90  67 1.90  54 1.90
   6  0.167  0.417  0.130-  51 1.90  82 1.90  74 1.90  55 1.90
   7  0.000  0.333  0.260-  55 1.89  71 1.89  54 1.89  56 1.90
   8  0.167  0.083  0.260-  62 1.89  54 1.89  79 1.89  57 1.90
   9  0.333  0.000  0.000-  58 1.90
  10  0.500  0.250  0.000-  59 1.90
  11  0.333  0.000  0.389-  57 1.89  88 1.89  65 1.89  60 1.90
  12  0.500  0.250  0.389-  65 1.89  64 1.89  72 1.89  61 1.90
  13  0.333  0.167  0.130-  58 1.90  51 1.90  59 1.90  62 1.90
  14  0.500  0.417  0.130-  59 1.90  82 1.90  90 1.90  63 1.90
  15  0.333  0.333  0.260-  55 1.89  63 1.89  62 1.89  64 1.90
  16  0.500  0.083  0.260-  87 1.89  70 1.89  62 1.89  65 1.90
  17  0.667  0.000  0.000-  66 1.90
  18  0.833  0.250  0.000-  67 1.90
  19  0.667  0.000  0.389-  96 1.89  73 1.89  65 1.89  68 1.90
  20  0.833  0.250  0.389-  73 1.89  72 1.89  56 1.89  69 1.90
  21  0.667  0.167  0.130-  66 1.90  67 1.90  59 1.90  70 1.90
  22  0.833  0.417  0.130-  67 1.90  90 1.90  74 1.90  71 1.90
  23  0.667  0.333  0.260-  71 1.89  63 1.89  70 1.89  72 1.90
  24  0.833  0.083  0.260-  70 1.89  54 1.89  95 1.89  73 1.90
  25  0.000  0.500  0.000-  74 1.90
  26  0.167  0.750  0.000-  75 1.90
  27  0.000  0.500  0.389-  56 1.89  81 1.89  97 1.89  76 1.91
  28  0.167  0.750  0.389-  81 1.89  88 1.89  80 1.89  77 1.99
  29  0.000  0.667  0.130-  74 1.90  75 1.90  91 1.90  78 1.90
  30  0.167  0.917  0.130-  75 1.90  58 1.90  50 1.90  79 1.90
  31  0.000  0.833  0.260-  79 1.89  95 1.89  78 1.89  80 1.90
  32  0.167  0.583  0.260-  86 1.89  78 1.89  55 1.89  81 1.90
  33  0.333  0.500  0.000-  82 1.90
  34  0.500  0.750  0.000-  83 1.90
  35  0.333  0.500  0.389-  64 1.89  81 1.89  89 1.89  84 1.93
  36  0.500  0.750  0.389-  89 1.89  88 1.89  96 1.89  85 1.92
  37  0.333  0.667  0.130-  82 1.90  75 1.90  83 1.90  86 1.90
  38  0.500  0.917  0.130-  58 1.90  66 1.90  83 1.90  87 1.90
  39  0.333  0.833  0.260-  79 1.89  87 1.89  86 1.89  88 1.90
  40  0.500  0.583  0.260-  86 1.89  94 1.89  63 1.89  89 1.90
  41  0.667  0.500  0.000-  90 1.90
  42  0.833  0.750  0.000-  91 1.90
  43  0.667  0.500  0.389-  72 1.89  97 1.89  89 1.89  92 1.90
  44  0.833  0.750  0.389-  97 1.89  96 1.89  80 1.89  93 1.90
  45  0.667  0.667  0.130-  90 1.90  91 1.90  83 1.90  94 1.90
  46  0.833  0.917  0.130-  66 1.90  50 1.90  91 1.90  95 1.90
  47  0.667  0.833  0.260-  95 1.89  87 1.89  94 1.89  96 1.90
  48  0.833  0.583  0.260-  94 1.89  78 1.89  71 1.89  97 1.90
  49  0.171  0.735  0.550-  77 1.66  98 2.67
  50  0.000  0.000  0.098-   5 1.90  46 1.90  30 1.90   1 1.90  58 3.09  66 3.09  51 3.09  67 3.09
                            75 3.09  91 3.09  54 3.10  95 3.10  79 3.10
  51  0.167  0.250  0.098-   6 1.90  13 1.90   5 1.90   2 1.90  59 3.09  58 3.09  82 3.09  74 3.09
                            50 3.09  67 3.09  55 3.10  62 3.10  54 3.10
  52  0.975  0.989  0.486-   3 1.91  77 2.47  68 2.85  93 2.90  73 3.02  80 3.03  69 3.13
  53  0.163  0.255  0.486-   4 1.89  84 2.78  76 2.85  69 2.98  61 3.05  56 3.05  64 3.09  57 3.11

  54  0.000  0.167  0.228-  24 1.89   8 1.89   7 1.89   5 1.90  95 3.09  70 3.09  62 3.09  71 3.09
                            79 3.09  55 3.09  73 3.10  57 3.10  56 3.10  50 3.10  67 3.10  51 3.10
  55  0.167  0.417  0.228-  15 1.89   7 1.89  32 1.89   6 1.90  63 3.09  62 3.09  86 3.09  78 3.09
                            54 3.09  71 3.09  64 3.10  56 3.10  81 3.10  51 3.10  82 3.10  74 3.10
  56  0.000  0.333  0.357-  27 1.89  20 1.89   4 1.89   7 1.90  76 2.94  69 3.04  53 3.05  72 3.09
                            64 3.09  73 3.09  81 3.09  97 3.09  57 3.09  71 3.10  55 3.10  54 3.10
  57  0.167  0.083  0.357-  11 1.89   3 1.89   4 1.89   8 1.90  88 3.09  80 3.09  65 3.09  73 3.09
                            64 3.09  56 3.09  62 3.10  54 3.10  79 3.10  53 3.11
  58  0.333  0.000  0.098-  13 1.90  30 1.90  38 1.90   9 1.90  50 3.09  51 3.09  75 3.09  59 3.09
                            83 3.09  66 3.09  62 3.10  79 3.10  87 3.10
  59  0.500  0.250  0.098-  14 1.90  13 1.90  21 1.90  10 1.90  51 3.09  67 3.09  66 3.09  58 3.09
                            82 3.09  90 3.09  63 3.10  62 3.10  70 3.10
  60  0.354  0.992  0.486-  11 1.90  77 2.49  85 2.89  68 2.91  65 3.02  88 3.04  61 3.06
  61  0.491  0.252  0.487-  12 1.90  84 2.76  53 3.05  64 3.05  60 3.06  65 3.11  72 3.13
  62  0.333  0.167  0.228-   8 1.89  16 1.89  15 1.89  13 1.90  87 3.09  54 3.09  79 3.09  55 3.09
                            63 3.09  70 3.09  57 3.10  65 3.10  64 3.10  58 3.10  51 3.10  59 3.10
  63  0.500  0.417  0.228-  15 1.89  23 1.89  40 1.89  14 1.90  55 3.09  71 3.09  70 3.09  62 3.09
                            86 3.09  94 3.09  64 3.10  72 3.10  89 3.10  59 3.10  90 3.10  82 3.10
  64  0.333  0.333  0.357-  35 1.89   4 1.89  12 1.89  15 1.90  84 2.92  61 3.05  53 3.09  56 3.09
                            81 3.09  89 3.09  72 3.09  57 3.09  65 3.09  55 3.10  63 3.10  62 3.10
  65  0.500  0.083  0.357-  11 1.89  19 1.89  12 1.89  16 1.90  60 3.02  88 3.09  96 3.09  57 3.09
                            73 3.09  72 3.09  64 3.09  87 3.10  70 3.10  62 3.10  61 3.11  68 3.14
  66  0.667  0.000  0.098-  46 1.90  21 1.90  38 1.90  17 1.90  50 3.09  67 3.09  91 3.09  83 3.09
                            59 3.09  58 3.09  95 3.10  70 3.10  87 3.10
  67  0.833  0.250  0.098-  22 1.90  21 1.90   5 1.90  18 1.90  59 3.09  66 3.09  90 3.09  74 3.09
                            50 3.09  51 3.09  71 3.10  70 3.10  54 3.10
  68  0.668  0.986  0.486-  19 1.90  85 2.72  93 2.79  52 2.85  60 2.91  96 3.00  73 3.13  65 3.14

  69  0.842  0.257  0.487-  20 1.90  76 2.72  53 2.98  92 3.02  56 3.04  72 3.11  52 3.13  73 3.14

  70  0.667  0.167  0.228-  24 1.89  16 1.89  23 1.89  21 1.90  95 3.09  87 3.09  54 3.09  71 3.09
                            63 3.09  62 3.09  73 3.10  65 3.10  72 3.10  66 3.10  67 3.10  59 3.10
  71  0.833  0.417  0.228-  23 1.89   7 1.89  48 1.89  22 1.90  63 3.09  70 3.09  94 3.09  78 3.09
                            54 3.09  55 3.09  72 3.10  56 3.10  97 3.10  67 3.10  90 3.10  74 3.10
  72  0.667  0.333  0.357-  43 1.89  20 1.89  12 1.89  23 1.90  56 3.09  73 3.09  97 3.09  89 3.09
                            64 3.09  65 3.09  71 3.10  63 3.10  70 3.10  92 3.11  69 3.11  61 3.13
  73  0.833  0.083  0.357-  20 1.89  19 1.89   3 1.89  24 1.90  52 3.02  65 3.09  72 3.09  96 3.09
                            80 3.09  56 3.09  57 3.09  70 3.10  54 3.10  95 3.10  68 3.13  69 3.14
  74  0.000  0.500  0.098-  29 1.90  22 1.90   6 1.90  25 1.90  82 3.09  90 3.09  75 3.09  51 3.09
                            67 3.09  91 3.09  78 3.10  71 3.10  55 3.10
  75  0.167  0.750  0.098-  30 1.90  37 1.90  29 1.90  26 1.90  83 3.09  82 3.09  58 3.09  50 3.09
                            74 3.09  91 3.09  79 3.10  86 3.10  78 3.10
  76  0.991  0.475  0.486-  27 1.91  69 2.72  53 2.85  92 2.90  56 2.94  97 3.14
  77  0.165  0.827  0.482-  49 1.66  28 1.99  52 2.47  60 2.49  80 2.88  88 2.90
  78  0.000  0.667  0.228-  32 1.89  48 1.89  31 1.89  29 1.90  86 3.09  94 3.09  79 3.09  55 3.09
                            71 3.09  95 3.09  81 3.10  97 3.10  80 3.10  74 3.10  91 3.10  75 3.10
  79  0.167  0.917  0.228-  39 1.89  31 1.89   8 1.89  30 1.90  87 3.09  86 3.09  62 3.09  54 3.09
                            78 3.09  95 3.09  88 3.10  80 3.10  57 3.10  75 3.10  58 3.10  50 3.10
  80  0.000  0.833  0.357-   3 1.89  28 1.89  44 1.89  31 1.90  77 2.88  52 3.03  57 3.09  88 3.09
                            96 3.09  73 3.09  81 3.09  97 3.09  79 3.10  95 3.10  78 3.10
  81  0.167  0.583  0.357-  28 1.89  35 1.89  27 1.89  32 1.90  89 3.09  88 3.09  64 3.09  56 3.09
                            80 3.09  97 3.09  86 3.10  78 3.10  55 3.10
  82  0.333  0.500  0.098-  37 1.90   6 1.90  14 1.90  33 1.90  74 3.09  51 3.09  75 3.09  59 3.09
                            83 3.09  90 3.09  86 3.10  55 3.10  63 3.10
  83  0.500  0.750  0.098-  38 1.90  37 1.90  45 1.90  34 1.90  75 3.09  91 3.09  58 3.09  82 3.09
                            90 3.09  66 3.09  87 3.10  86 3.10  94 3.10
  84  0.332  0.469  0.487-  35 1.93  61 2.76  53 2.78  64 2.92
  85  0.523  0.765  0.487-  36 1.92  93 2.69  68 2.72  60 2.89  96 2.95
  86  0.333  0.667  0.228-  32 1.89  40 1.89  39 1.89  37 1.90  78 3.09  55 3.09  79 3.09  63 3.09
                            94 3.09  87 3.09  81 3.10  89 3.10  88 3.10  82 3.10  75 3.10  83 3.10
  87  0.500  0.917  0.228-  16 1.89  39 1.89  47 1.89  38 1.90  62 3.09  70 3.09  95 3.09  79 3.09
                            94 3.09  86 3.09  65 3.10  88 3.10  96 3.10  66 3.10  58 3.10  83 3.10
  88  0.333  0.833  0.357-  11 1.89  28 1.89  36 1.89  39 1.90  77 2.90  60 3.04  57 3.09  65 3.09
                            80 3.09  81 3.09  89 3.09  96 3.09  79 3.10  87 3.10  86 3.10
  89  0.500  0.583  0.357-  36 1.89  35 1.89  43 1.89  40 1.90  81 3.09  97 3.09  64 3.09  88 3.09
                            96 3.09  72 3.09  86 3.10  94 3.10  63 3.10
  90  0.667  0.500  0.098-  45 1.90  22 1.90  14 1.90  41 1.90  74 3.09  67 3.09  91 3.09  83 3.09
                            59 3.09  82 3.09  94 3.10  71 3.10  63 3.10
  91  0.833  0.750  0.098-  45 1.90  46 1.90  29 1.90  42 1.90  83 3.09  66 3.09  90 3.09  50 3.09
                            74 3.09  75 3.09  94 3.10  95 3.10  78 3.10
  92  0.680  0.502  0.487-  43 1.90  76 2.90  93 3.00  69 3.02  97 3.03  72 3.11
  93  0.812  0.758  0.486-  44 1.90  85 2.69  68 2.79  52 2.90  96 2.97  92 3.00  97 3.14
  94  0.667  0.667  0.228-  48 1.89  40 1.89  47 1.89  45 1.90  78 3.09  71 3.09  63 3.09  86 3.09
                            95 3.09  87 3.09  97 3.10  89 3.10  96 3.10  90 3.10  91 3.10  83 3.10
  95  0.833  0.917  0.228-  47 1.89  31 1.89  24 1.89  46 1.90  70 3.09  54 3.09  87 3.09  79 3.09
                            94 3.09  78 3.09  96 3.10  80 3.10  73 3.10  66 3.10  50 3.10  91 3.10
  96  0.667  0.833  0.357-  19 1.89  44 1.89  36 1.89  47 1.90  85 2.95  93 2.97  68 3.00  65 3.09
                            80 3.09  73 3.09  97 3.09  89 3.09  88 3.09  95 3.10  87 3.10  94 3.10
  97  0.833  0.583  0.357-  44 1.89  43 1.89  27 1.89  48 1.90  92 3.03  89 3.09  72 3.09  96 3.09
                            80 3.09  56 3.09  81 3.09  94 3.10  78 3.10  71 3.10  76 3.14  93 3.14
  98  0.363  0.642  0.638-  49 2.67
 
  LATTYP: Found a simple orthorhombic cell.
 ALAT       =     9.2842500000
 B/A-ratio  =     1.1547007028
 C/A-ratio  =     2.0998788270
  
  Lattice vectors:
  
 A1 = (   9.2842500000,   0.0000000000,   0.0000000000)
 A2 = (   0.0000000000,  10.7205300000,   0.0000000000)
 A3 = (   0.0000000000,   0.0000000000,  19.4958000000)


Analysis of symmetry for initial positions (statically):
=====================================================================
 Subroutine PRICEL returns:
 Original cell was already a primitive cell.
 

 Routine SETGRP: Setting up the symmetry group for a 
 simple orthorhombic supercell.


 Subroutine GETGRP returns: Found  1 space group operations
 (whereof  1 operations were pure point group operations)
 out of a pool of  8 trial point group operations.


The static configuration has the point symmetry C_1 .


Analysis of symmetry for dynamics (positions and initial velocities):
=====================================================================
 Subroutine PRICEL returns:
 Original cell was already a primitive cell.
 

 Routine SETGRP: Setting up the symmetry group for a 
 simple orthorhombic supercell.


 Subroutine GETGRP returns: Found  1 space group operations
 (whereof  1 operations were pure point group operations)
 out of a pool of  8 trial point group operations.


The dynamic configuration has the point symmetry C_1 .


Analysis of constrained symmetry for selective dynamics:
=====================================================================
 Subroutine PRICEL returns:
 Original cell was already a primitive cell.
 

 Routine SETGRP: Setting up the symmetry group for a 
 simple orthorhombic supercell.


 Subroutine GETGRP returns: Found  1 space group operations
 (whereof  1 operations were pure point group operations)
 out of a pool of  8 trial point group operations.


The constrained configuration has the point symmetry C_1 .


 Subroutine INISYM returns: Found  1 space group operations
 (whereof  1 operations are pure point group operations),
 and found     1 'primitive' translations


----------------------------------------------------------------------------------------

                                     Primitive cell                                     

  volume of cell :    1940.4575

  direct lattice vectors                    reciprocal lattice vectors
     9.284250000  0.000000000  0.000000000     0.107709293  0.000000000  0.000000000
     0.000000000 10.720530000  0.000000000     0.000000000  0.093278970  0.000000000
     0.000000000  0.000000000 19.495800000     0.000000000  0.000000000  0.051293099

  length of vectors
     9.284250000 10.720530000 19.495800000     0.107709293  0.093278970  0.051293099

  position of ions in fractional coordinates (direct lattice)
     0.000000000  0.000000000  0.000000000
     0.166667000  0.250000000  0.000000000
     0.000000000  0.000000000  0.389445000
     0.166667000  0.250000000  0.389445000
     0.000000000  0.166666000  0.130180000
     0.166667000  0.416666000  0.130180000
     0.000000000  0.333334000  0.259852000
     0.166667000  0.083333000  0.259852000
     0.333333000  0.000000000  0.000000000
     0.500000000  0.250000000  0.000000000
     0.333333000  0.000000000  0.389445000
     0.500000000  0.250000000  0.389445000
     0.333333000  0.166666000  0.130180000
     0.500000000  0.416666000  0.130180000
     0.333333000  0.333334000  0.259852000
     0.500000000  0.083333000  0.259852000
     0.666667000  0.000000000  0.000000000
     0.833333000  0.250000000  0.000000000
     0.666667000  0.000000000  0.389445000
     0.833333000  0.250000000  0.389445000
     0.666667000  0.166666000  0.130180000
     0.833333000  0.416666000  0.130180000
     0.666667000  0.333334000  0.259852000
     0.833333000  0.083334000  0.259852000
     0.000000000  0.500000000  0.000000000
     0.166667000  0.750000000  0.000000000
     0.000000000  0.500000000  0.389445000
     0.166667000  0.750000000  0.389445000
     0.000000000  0.666666000  0.130180000
     0.166667000  0.916666000  0.130180000
     0.000000000  0.833334000  0.259852000
     0.166667000  0.583334000  0.259852000
     0.333333000  0.500000000  0.000000000
     0.500000000  0.750000000  0.000000000
     0.333333000  0.500000000  0.389445000
     0.500000000  0.750000000  0.389445000
     0.333333000  0.666666000  0.130180000
     0.500000000  0.916667000  0.130180000
     0.333333000  0.833334000  0.259852000
     0.500000000  0.583334000  0.259852000
     0.666667000  0.500000000  0.000000000
     0.833333000  0.750000000  0.000000000
     0.666667000  0.500000000  0.389445000
     0.833333000  0.750000000  0.389445000
     0.666667000  0.666666000  0.130180000
     0.833333000  0.916667000  0.130180000
     0.666667000  0.833334000  0.259852000
     0.833333000  0.583334000  0.259852000
     0.170522455  0.734655240  0.550276692
     0.000000000  0.000000000  0.097624000
     0.166667000  0.250000000  0.097624000
     0.975117928  0.989014289  0.486487830
     0.162602499  0.254841129  0.486139706
     0.000000000  0.166666000  0.227532000
     0.166667000  0.416666000  0.227532000
     0.000000000  0.333334000  0.357207000
     0.166667000  0.083333000  0.357207000
     0.333333000  0.000000000  0.097624000
     0.500000000  0.250000000  0.097624000
     0.354359826  0.991928827  0.486167950
     0.491117298  0.251507655  0.486879459
     0.333333000  0.166666000  0.227532000
     0.500000000  0.416666000  0.227532000
     0.333333000  0.333334000  0.357207000
     0.500000000  0.083333000  0.357207000
     0.666667000  0.000000000  0.097624000
     0.833333000  0.250000000  0.097624000
     0.668187434  0.985737138  0.486411466
     0.841645049  0.257220476  0.486917080
     0.666667000  0.166666000  0.227532000
     0.833333000  0.416666000  0.227532000
     0.666667000  0.333334000  0.357207000
     0.833333000  0.083334000  0.357207000
     0.000000000  0.500000000  0.097624000
     0.166667000  0.750000000  0.097624000
     0.991394814  0.475200387  0.486277398
     0.164766340  0.827157145  0.482143006
     0.000000000  0.666666000  0.227532000
     0.166667000  0.916666000  0.227532000
     0.000000000  0.833334000  0.357207000
     0.166667000  0.583334000  0.357207000
     0.333333000  0.500000000  0.097624000
     0.500000000  0.750000000  0.097624000
     0.332156242  0.468862426  0.486997646
     0.523083811  0.765497901  0.486780179
     0.333333000  0.666666000  0.227532000
     0.500000000  0.916667000  0.227532000
     0.333333000  0.833334000  0.357207000
     0.500000000  0.583334000  0.357207000
     0.666667000  0.500000000  0.097624000
     0.833333000  0.750000000  0.097624000
     0.680227157  0.502267668  0.486926170
     0.812399031  0.757870875  0.486098234
     0.666667000  0.666666000  0.227532000
     0.833333000  0.916667000  0.227532000
     0.666667000  0.833334000  0.357207000
     0.833333000  0.583334000  0.357207000
     0.362772997  0.642423765  0.638238781

  ion indices of the primitive-cell ions
   primitive index   ion index
                 1           1
                 2           2
                 3           3
                 4           4
                 5           5
                 6           6
                 7           7
                 8           8
                 9           9
                10          10
                11          11
                12          12
                13          13
                14          14
                15          15
                16          16
                17          17
                18          18
                19          19
                20          20
                21          21
                22          22
                23          23
                24          24
                25          25
                26          26
                27          27
                28          28
                29          29
                30          30
                31          31
                32          32
                33          33
                34          34
                35          35
                36          36
                37          37
                38          38
                39          39
                40          40
                41          41
                42          42
                43          43
                44          44
                45          45
                46          46
                47          47
                48          48
                49          49
                50          50
                51          51
                52          52
                53          53
                54          54
                55          55
                56          56
                57          57
                58          58
                59          59
                60          60
                61          61
                62          62
                63          63
                64          64
                65          65
                66          66
                67          67
                68          68
                69          69
                70          70
                71          71
                72          72
                73          73
                74          74
                75          75
                76          76
                77          77
                78          78
                79          79
                80          80
                81          81
                82          82
                83          83
                84          84
                85          85
                86          86
                87          87
                88          88
                89          89
                90          90
                91          91
                92          92
                93          93
                94          94
                95          95
                96          96
                97          97
                98          98

----------------------------------------------------------------------------------------

 
 
 KPOINTS: K-Spacing Value to Generate K-Mesh: 0.03

Automatic generation of k-mesh.
 Grid dimensions read from file:
 generate k-points for:    4    3    1

 Generating k-lattice:

  Cartesian coordinates                     Fractional coordinates (reciprocal lattice)
     0.026927323  0.000000000  0.000000000     0.250000000  0.000000000  0.000000000
     0.000000000  0.031092990  0.000000000     0.000000000  0.333333333  0.000000000
     0.000000000  0.000000000  0.051293099     0.000000000  0.000000000  1.000000000

  Length of vectors
     0.026927323  0.031092990  0.051293099

  Shift w.r.t. Gamma in fractional coordinates (k-lattice)
     0.000000000  0.000000000  0.000000000

 TETIRR: Found     34 inequivalent tetrahedra from       72
 
 Subroutine IBZKPT returns following result:
 ===========================================
 
 Found      7 irreducible k-points:
 
 Following reciprocal coordinates:
            Coordinates               Weight
  0.000000  0.000000  0.000000      1.000000
  0.250000  0.000000  0.000000      2.000000
  0.500000  0.000000  0.000000      1.000000
  0.000000  0.333333  0.000000      2.000000
  0.250000  0.333333  0.000000      2.000000
  0.250000 -0.333333  0.000000      2.000000
  0.500000  0.333333  0.000000      2.000000
 
 Following cartesian coordinates:
            Coordinates               Weight
  0.000000  0.000000  0.000000      1.000000
  0.026927  0.000000  0.000000      2.000000
  0.053855  0.000000  0.000000      1.000000
  0.000000  0.031093  0.000000      2.000000
  0.026927  0.031093  0.000000      2.000000
  0.026927 -0.031093  0.000000      2.000000
  0.053855  0.031093  0.000000      2.000000
 


--------------------------------------------------------------------------------------------------------




 Dimension of arrays:
   k-points           NKPTS =      7   k-points in BZ     NKDIM =      7   number of bands    NBANDS=    252
   number of dos      NEDOS =    301   number of ions     NIONS =     98
   non local maximal  LDIM  =      5   non local SUM 2l+1 LMDIM =     13
   total plane-waves  NPLWV = 840000
   max r-space proj   IRMAX =   4509   max aug-charges    IRDMAX=  20346
   dimension x,y,z NGX =    70 NGY =   80 NGZ =  150
   dimension x,y,z NGXF=   140 NGYF=  160 NGZF=  300
   support grid    NGXF=   140 NGYF=  160 NGZF=  300
   ions per type =              48   1  48   1
   NGX,Y,Z   is equivalent  to a cutoff of  12.53, 12.41, 12.79 a.u.
   NGXF,Y,Z  is equivalent  to a cutoff of  25.07, 24.81, 25.58 a.u.

 SYSTEM =  ni3al                                   
 POSCAR =  POSCAR                                  

 Startparameter for this run:
   NWRITE =      2    write-flag & timer
   PREC   = accura    normal or accurate (medium, high low for compatibility)
   ISTART =      0    job   : 0-new  1-cont  2-samecut
   ICHARG =      2    charge: 1-file 2-atom 10-const
   ISPIN  =      1    spin polarized calculation?
   LNONCOLLINEAR =      F non collinear calculations
   LSORBIT =      F    spin-orbit coupling
   INIWAV =      1    electr: 0-lowe 1-rand  2-diag
   LASPH  =      F    aspherical Exc in radial PAW
 Electronic Relaxation 1
   ENCUT  =  530.0 eV  38.95 Ry    6.24 a.u.  17.43 20.12 36.60*2*pi/ulx,y,z
   ENINI  =  530.0     initial cutoff
   ENAUG  =  644.9 eV  augmentation charge cutoff
   NELM   =    150;   NELMIN=  2; NELMDL= -5     # of ELM steps 
   EDIFF  = 0.1E-05   stopping-criterion for ELM
   LREAL  =      T    real-space projection
   NLSPLINE    = F    spline interpolate recip. space projectors
   LCOMPAT=      F    compatible to vasp.4.4
   GGA_COMPAT  = T    GGA compatible to vasp.4.4-vasp.4.6
   LMAXPAW     = -100 max onsite density
   LMAXMIX     =    4 max onsite mixed and CHGCAR
   VOSKOWN=      0    Vosko Wilk Nusair interpolation
   ROPT   =   -0.00025  -0.00025  -0.00025  -0.00025
 Ionic relaxation
   EDIFFG = -.1E-01   stopping-criterion for IOM
   NSW    =      0    number of steps for IOM
   NBLOCK =      1;   KBLOCK =      1    inner block; outer block 
   IBRION =     -1    ionic relax: 0-MD 1-quasi-New 2-CG
   NFREE  =      0    steps in history (QN), initial steepest desc. (CG)
   ISIF   =      2    stress and relaxation
   IWAVPR =     10    prediction:  0-non 1-charg 2-wave 3-comb
   ISYM   =      2    0-nonsym 1-usesym 2-fastsym
   LCORR  =      T    Harris-Foulkes like correction to forces

   POTIM  = 0.5000    time-step for ionic-motion
   TEIN   =    0.0    initial temperature
   TEBEG  =    0.0;   TEEND  =   0.0 temperature during run
   SMASS  =  -3.00    Nose mass-parameter (am)
   estimated Nose-frequenzy (Omega)   =  0.10E-29 period in steps = 0.13E+47 mass=  -0.197E-26a.u.
   SCALEE = 1.0000    scale energy and forces
   NPACO  =    256;   APACO  = 10.0  distance and # of slots for P.C.
   PSTRESS=    0.0 pullay stress

  Mass of Ions in am
   POMASS =  12.01 19.00 28.09 39.10
  Ionic Valenz
   ZVAL   =   4.00  7.00  4.00  9.00
  Atomic Wigner-Seitz radii
   RWIGS  =  -1.00 -1.00 -1.00 -1.00
  virtual crystal weights 
   VCA    =   1.00  1.00  1.00  1.00
   NELECT =     400.0000    total number of electrons
   NUPDOWN=      -1.0000    fix difference up-down

 DOS related values:
   EMIN   =  10.00;   EMAX   =-10.00  energy-range for DOS
   EFERMI =   0.00
   ISMEAR =    -5;   SIGMA  =   0.10  broadening in eV -4-tet -1-fermi 0-gaus

 Electronic relaxation 2 (details)
   IALGO  =     68    algorithm
   LDIAG  =      T    sub-space diagonalisation (order eigenvalues)
   LSUBROT=      F    optimize rotation matrix (better conditioning)
   TURBO    =      0    0=normal 1=particle mesh
   IRESTART =      0    0=no restart 2=restart with 2 vectors
   NREBOOT  =      0    no. of reboots
   NMIN     =      0    reboot dimension
   EREF     =   0.00    reference energy to select bands
   IMIX   =      4    mixing-type and parameters
     AMIX     =   0.40;   BMIX     =  1.00
     AMIX_MAG =   1.60;   BMIX_MAG =  1.00
     AMIN     =   0.01
     WC   =   100.;   INIMIX=   1;  MIXPRE=   1;  MAXMIX= -45

 Intra band minimization:
   WEIMIN = 0.0000     energy-eigenvalue tresh-hold
   EBREAK =  0.99E-09  absolut break condition
   DEPER  =   0.30     relativ break condition  

   TIME   =   0.40     timestep for ELM

  volume/ion in A,a.u.               =      19.80       133.62
  Fermi-wavevector in a.u.,A,eV,Ry     =   0.967075  1.827507 12.724629  0.935234
  Thomas-Fermi vector in A             =   2.096930
 
 Write flags
   LWAVE        =      F    write WAVECAR
   LDOWNSAMPLE  =      F    k-point downsampling of WAVECAR
   LCHARG       =      F    write CHGCAR
   LVTOT        =      F    write LOCPOT, total local potential
   LVHAR        =      F    write LOCPOT, Hartree potential only
   LELF         =      T    write electronic localiz. function (ELF)
   LORBIT       =      0    0 simple, 1 ext, 2 COOP (PROOUT), +10 PAW based schemes


 Dipole corrections
   LMONO  =      F    monopole corrections only (constant potential shift)
   LDIPOL =      F    correct potential (dipole corrections)
   IDIPOL =      0    1-x, 2-y, 3-z, 4-all directions 
   EPSILON=  1.0000000 bulk dielectric constant

 Exchange correlation treatment:
   GGA     =    --    GGA type
   LEXCH   =     8    internal setting for exchange type
   LIBXC   =     F    Libxc                    
   VOSKOWN =     0    Vosko Wilk Nusair interpolation
   LHFCALC =     F    Hartree Fock is set to
   LHFONE  =     F    Hartree Fock one center treatment
   AEXX    =    0.0000 exact exchange contribution

 Linear response parameters
   LEPSILON=     F    determine dielectric tensor
   LRPA    =     F    only Hartree local field effects (RPA)
   LNABLA  =     F    use nabla operator in PAW spheres
   LVEL    =     F    velocity operator in full k-point grid
   CSHIFT  =0.1000    complex shift for real part using Kramers Kronig
   OMEGAMAX=  -1.0    maximum frequency
   DEG_THRESHOLD= 0.2000000E-02 threshold for treating states as degnerate
   RTIME   =   -0.100 relaxation time in fs
  (WPLASMAI=    0.000 imaginary part of plasma frequency in eV, 0.658/RTIME)
   DFIELD  = 0.0000000 0.0000000 0.0000000 field for delta impulse in time
 
  Optional k-point grid parameters
   LKPOINTS_OPT  =     F    use optional k-point grid
   KPOINTS_OPT_MODE=     1    mode for optional k-point grid
 
 Orbital magnetization related:
   ORBITALMAG=     F  switch on orbital magnetization
   LCHIMAG   =     F  perturbation theory with respect to B field
   DQ        =  0.001000  dq finite difference perturbation B field
   LLRAUG    =     F  two centre corrections for induced B field



--------------------------------------------------------------------------------------------------------


 Static calculation
 charge density and potential will be updated during run
 non-spin polarized calculation
 RMM-DIIS sequential band-by-band and
  variant of blocked Davidson during initial phase
 perform sub-space diagonalisation
    before iterative eigenvector-optimisation
 modified Broyden-mixing scheme, WC =      100.0
 initial mixing is a Kerker type mixing with AMIX =  0.4000 and BMIX =      1.0000
 Hartree-type preconditioning will be used
 using additional bands           52
 real space projection scheme for non local part
 use partial core corrections
 calculate Harris-corrections to forces 
   (improved forces if not selfconsistent)
 use gradient corrections 
 use of overlap-Matrix (Vanderbilt PP)
 Fermi weights with tetrahedron method with Bloechl corrections


--------------------------------------------------------------------------------------------------------


  energy-cutoff  :      530.00
  volume of cell :     1940.46
      direct lattice vectors                 reciprocal lattice vectors
     9.284250000  0.000000000  0.000000000     0.107709293  0.000000000  0.000000000
     0.000000000 10.720530000  0.000000000     0.000000000  0.093278970  0.000000000
     0.000000000  0.000000000 19.495800000     0.000000000  0.000000000  0.051293099

  length of vectors
     9.284250000 10.720530000 19.495800000     0.107709293  0.093278970  0.051293099


 
 k-points in units of 2pi/SCALE and weight: K-Spacing Value to Generate K-Mesh: 0.03
   0.00000000  0.00000000  0.00000000       0.083
   0.02692732  0.00000000  0.00000000       0.167
   0.05385465  0.00000000  0.00000000       0.083
   0.00000000  0.03109299  0.00000000       0.167
   0.02692732  0.03109299  0.00000000       0.167
   0.02692732 -0.03109299  0.00000000       0.167
   0.05385465  0.03109299  0.00000000       0.167
 
 k-points in reciprocal lattice and weights: K-Spacing Value to Generate K-Mesh: 0.03
   0.00000000  0.00000000  0.00000000       0.083
   0.25000000  0.00000000  0.00000000       0.167
   0.50000000  0.00000000  0.00000000       0.083
   0.00000000  0.33333333  0.00000000       0.167
   0.25000000  0.33333333  0.00000000       0.167
   0.25000000 -0.33333333  0.00000000       0.167
   0.50000000  0.33333333  0.00000000       0.167
 
 position of ions in fractional coordinates (direct lattice) 
   0.00000000  0.00000000  0.00000000
   0.16666700  0.25000000  0.00000000
   0.00000000  0.00000000  0.38944500
   0.16666700  0.25000000  0.38944500
   0.00000000  0.16666600  0.13018000
   0.16666700  0.41666600  0.13018000
   0.00000000  0.33333400  0.25985200
   0.16666700  0.08333300  0.25985200
   0.33333300  0.00000000  0.00000000
   0.50000000  0.25000000  0.00000000
   0.33333300  0.00000000  0.38944500
   0.50000000  0.25000000  0.38944500
   0.33333300  0.16666600  0.13018000
   0.50000000  0.41666600  0.13018000
   0.33333300  0.33333400  0.25985200
   0.50000000  0.08333300  0.25985200
   0.66666700  0.00000000  0.00000000
   0.83333300  0.25000000  0.00000000
   0.66666700  0.00000000  0.38944500
   0.83333300  0.25000000  0.38944500
   0.66666700  0.16666600  0.13018000
   0.83333300  0.41666600  0.13018000
   0.66666700  0.33333400  0.25985200
   0.83333300  0.08333400  0.25985200
   0.00000000  0.50000000  0.00000000
   0.16666700  0.75000000  0.00000000
   0.00000000  0.50000000  0.38944500
   0.16666700  0.75000000  0.38944500
   0.00000000  0.66666600  0.13018000
   0.16666700  0.91666600  0.13018000
   0.00000000  0.83333400  0.25985200
   0.16666700  0.58333400  0.25985200
   0.33333300  0.50000000  0.00000000
   0.50000000  0.75000000  0.00000000
   0.33333300  0.50000000  0.38944500
   0.50000000  0.75000000  0.38944500
   0.33333300  0.66666600  0.13018000
   0.50000000  0.91666700  0.13018000
   0.33333300  0.83333400  0.25985200
   0.50000000  0.58333400  0.25985200
   0.66666700  0.50000000  0.00000000
   0.83333300  0.75000000  0.00000000
   0.66666700  0.50000000  0.38944500
   0.83333300  0.75000000  0.38944500
   0.66666700  0.66666600  0.13018000
   0.83333300  0.91666700  0.13018000
   0.66666700  0.83333400  0.25985200
   0.83333300  0.58333400  0.25985200
   0.17052245  0.73465524  0.55027669
   0.00000000  0.00000000  0.09762400
   0.16666700  0.25000000  0.09762400
   0.97511793  0.98901429  0.48648783
   0.16260250  0.25484113  0.48613971
   0.00000000  0.16666600  0.22753200
   0.16666700  0.41666600  0.22753200
   0.00000000  0.33333400  0.35720700
   0.16666700  0.08333300  0.35720700
   0.33333300  0.00000000  0.09762400
   0.50000000  0.25000000  0.09762400
   0.35435983  0.99192883  0.48616795
   0.49111730  0.25150766  0.48687946
   0.33333300  0.16666600  0.22753200
   0.50000000  0.41666600  0.22753200
   0.33333300  0.33333400  0.35720700
   0.50000000  0.08333300  0.35720700
   0.66666700  0.00000000  0.09762400
   0.83333300  0.25000000  0.09762400
   0.66818743  0.98573714  0.48641147
   0.84164505  0.25722048  0.48691708
   0.66666700  0.16666600  0.22753200
   0.83333300  0.41666600  0.22753200
   0.66666700  0.33333400  0.35720700
   0.83333300  0.08333400  0.35720700
   0.00000000  0.50000000  0.09762400
   0.16666700  0.75000000  0.09762400
   0.99139481  0.47520039  0.48627740
   0.16476634  0.82715715  0.48214301
   0.00000000  0.66666600  0.22753200
   0.16666700  0.91666600  0.22753200
   0.00000000  0.83333400  0.35720700
   0.16666700  0.58333400  0.35720700
   0.33333300  0.50000000  0.09762400
   0.50000000  0.75000000  0.09762400
   0.33215624  0.46886243  0.48699765
   0.52308381  0.76549790  0.48678018
   0.33333300  0.66666600  0.22753200
   0.50000000  0.91666700  0.22753200
   0.33333300  0.83333400  0.35720700
   0.50000000  0.58333400  0.35720700
   0.66666700  0.50000000  0.09762400
   0.83333300  0.75000000  0.09762400
   0.68022716  0.50226767  0.48692617
   0.81239903  0.75787088  0.48609823
   0.66666700  0.66666600  0.22753200
   0.83333300  0.91666700  0.22753200
   0.66666700  0.83333400  0.35720700
   0.83333300  0.58333400  0.35720700
   0.36277300  0.64242376  0.63823878
 
 position of ions in cartesian coordinates  (Angst):
   0.00000000  0.00000000  0.00000000
   1.54737809  2.68013250  0.00000000
   0.00000000  0.00000000  7.59254183
   1.54737809  2.68013250  7.59254183
   0.00000000  1.78674785  2.53796324
   1.54737809  4.46688035  2.53796324
   0.00000000  3.57351715  5.06602262
   1.54737809  0.89337393  5.06602262
   3.09474691  0.00000000  0.00000000
   4.64212500  2.68013250  0.00000000
   3.09474691  0.00000000  7.59254183
   4.64212500  2.68013250  7.59254183
   3.09474691  1.78674785  2.53796324
   4.64212500  4.46688035  2.53796324
   3.09474691  3.57351715  5.06602262
   4.64212500  0.89337393  5.06602262
   6.18950309  0.00000000  0.00000000
   7.73687191  2.68013250  0.00000000
   6.18950309  0.00000000  7.59254183
   7.73687191  2.68013250  7.59254183
   6.18950309  1.78674785  2.53796324
   7.73687191  4.46688035  2.53796324
   6.18950309  3.57351715  5.06602262
   7.73687191  0.89338465  5.06602262
   0.00000000  5.36026500  0.00000000
   1.54737809  8.04039750  0.00000000
   0.00000000  5.36026500  7.59254183
   1.54737809  8.04039750  7.59254183
   0.00000000  7.14701285  2.53796324
   1.54737809  9.82714535  2.53796324
   0.00000000  8.93378215  5.06602262
   1.54737809  6.25364965  5.06602262
   3.09474691  5.36026500  0.00000000
   4.64212500  8.04039750  0.00000000
   3.09474691  5.36026500  7.59254183
   4.64212500  8.04039750  7.59254183
   3.09474691  7.14701285  2.53796324
   4.64212500  9.82715607  2.53796324
   3.09474691  8.93378215  5.06602262
   4.64212500  6.25364965  5.06602262
   6.18950309  5.36026500  0.00000000
   7.73687191  8.04039750  0.00000000
   6.18950309  5.36026500  7.59254183
   7.73687191  8.04039750  7.59254183
   6.18950309  7.14701285  2.53796324
   7.73687191  9.82715607  2.53796324
   6.18950309  8.93378215  5.06602262
   7.73687191  6.25364965  5.06602262
   1.58317310  7.87589354 10.72808434
   0.00000000  0.00000000  1.90325798
   1.54737809  2.68013250  1.90325798
   9.05323862 10.60275735  9.48446943
   1.50964225  2.73203197  9.47768247
   0.00000000  1.78674785  4.43591837
   1.54737809  4.46688035  4.43591837
   0.00000000  3.57351715  6.96403623
   1.54737809  0.89337393  6.96403623
   3.09474691  0.00000000  1.90325798
   4.64212500  2.68013250  1.90325798
   3.28996521 10.63400275  9.47823312
   4.55965577  2.69629536  9.49210455
   3.09474691  1.78674785  4.43591837
   4.64212500  4.46688035  4.43591837
   3.09474691  3.57351715  6.96403623
   4.64212500  0.89337393  6.96403623
   6.18950309  0.00000000  1.90325798
   7.73687191  2.68013250  1.90325798
   6.20361918 10.56762456  9.48298066
   7.81404305  2.75753983  9.49283801
   6.18950309  1.78674785  4.43591837
   7.73687191  4.46688035  4.43591837
   6.18950309  3.57351715  6.96403623
   7.73687191  0.89338465  6.96403623
   0.00000000  5.36026500  1.90325798
   1.54737809  8.04039750  1.90325798
   9.20435730  5.09440001  9.48036690
   1.52973189  8.86756299  9.39976362
   0.00000000  7.14701285  4.43591837
   1.54737809  9.82714535  4.43591837
   0.00000000  8.93378215  6.96403623
   1.54737809  6.25364965  6.96403623
   3.09474691  5.36026500  1.90325798
   4.64212500  8.04039750  1.90325798
   3.08382159  5.02645370  9.49440870
   4.85644087  8.20654321  9.49016902
   3.09474691  7.14701285  4.43591837
   4.64212500  9.82715607  4.43591837
   3.09474691  8.93378215  6.96403623
   4.64212500  6.25364965  6.96403623
   6.18950309  5.36026500  1.90325798
   7.73687191  8.04039750  1.90325798
   6.31539898  5.38457560  9.49301523
   7.54251570  8.12477746  9.47687396
   6.18950309  7.14701285  4.43591837
   7.73687191  9.82715607  4.43591837
   6.18950309  8.93378215  6.96403623
   7.73687191  6.25364965  6.96403623
   3.36807520  6.88712324 12.44297564
 


--------------------------------------------------------------------------------------------------------


 k-point   1 :   0.0000 0.0000 0.0000  plane waves:   53799
 k-point   2 :   0.2500 0.0000 0.0000  plane waves:   53755
 k-point   3 :   0.5000 0.0000 0.0000  plane waves:   53770
 k-point   4 :   0.0000 0.3333 0.0000  plane waves:   53790
 k-point   5 :   0.2500 0.3333 0.0000  plane waves:   53786
 k-point   6 :   0.2500-0.3333 0.0000  plane waves:   53786
 k-point   7 :   0.5000 0.3333 0.0000  plane waves:   53718

 maximum and minimum number of plane-waves per node :     53799    53718

 maximum number of plane-waves:     53799
 maximum index in each direction: 
   IXMAX=   17   IYMAX=   20   IZMAX=   36
   IXMIN=  -17   IYMIN=  -20   IZMIN=  -36


 serial   3D FFT for wavefunctions
 parallel 3D FFT for charge:
    minimum data exchange during FFTs selected (reduces bandwidth)


 total amount of memory used by VASP MPI-rank0   656952. kBytes
=======================================================================

   base      :      30000. kBytes
   nonlr-proj:      25564. kBytes
   fftplans  :      60117. kBytes
   grid      :     155276. kBytes
   one-center:        794. kBytes
   wavefun   :     385201. kBytes
 
     INWAV:  cpu time      0.0003: real time      0.0000
 Broyden mixing: mesh for mixing (old mesh)
   NGX = 35   NGY = 41   NGZ = 73
  (NGX  =140   NGY  =160   NGZ  =300)
  gives a total of 104755 points

 initial charge density was supplied:
 charge density of overlapping atoms calculated
 number of electron     400.0000000 magnetization 
 keeping initial charge density in first step


--------------------------------------------------------------------------------------------------------


 Maximum index for non-local projection operator         4331
 Maximum index for augmentation-charges         4895 (set IRDMAX)


--------------------------------------------------------------------------------------------------------


 First call to EWALD:  gamma=   0.142
 Maximum number of real-space cells 4x 3x 2
 Maximum number of reciprocal cells 2x 2x 4

    FEWALD:  cpu time      0.0214: real time      0.0107


--------------------------------------- Iteration      1(   1)  ---------------------------------------


    POTLOK:  cpu time      3.3693: real time      0.5047
    SETDIJ:  cpu time      0.3071: real time      0.0440
     EDDAV:  cpu time     57.1384: real time      8.2040
 BZINTS: Fermi energy:   12.531408;  400.000000 electrons
         Band energy: 0.357511E+03;  BLOECHL correction:   -0.014745
       DOS:  cpu time      0.1354: real time      0.0194
    --------------------------------------------
      LOOP:  cpu time     60.9507: real time      8.7721

 eigenvalue-minimisations  :  3528
 total energy-change (2. order) : 0.2134268E+04  (-0.1689403E+05)
 number of electron     400.0000000 magnetization 
 augmentation part      400.0000000 magnetization 

 Free energy of the ion-electron system (eV)
  ---------------------------------------------------
  alpha Z        PSCENC =       318.41319391
  Ewald energy   TEWEN  =     30862.42824000
  -Hartree energ DENC   =    -43920.85597455
  -exchange      EXHF   =         0.00000000
  -V(xc)+E(xc)   XCENC  =       283.03995574
  PAW double counting   =      4337.97084573    -3548.78544197
  entropy T*S    EENTRO =         0.00000000
  eigenvalues    EBANDS =       357.51096823
  atomic energy  EATOM  =     13444.54662946
  Solvation  Ediel_sol  =         0.00000000
  ---------------------------------------------------
  free energy    TOTEN  =      2134.26841656 eV

  energy without entropy =     2134.26841656  energy(sigma->0) =     2134.26841656


--------------------------------------------------------------------------------------------------------




--------------------------------------- Iteration      1(   2)  ---------------------------------------


     EDDAV:  cpu time     68.0073: real time      9.7544
 BZINTS: Fermi energy:    2.636609;  400.000000 electrons
         Band energy:-0.216939E+04;  BLOECHL correction:   -0.048459
       DOS:  cpu time      0.1287: real time      0.0184
    --------------------------------------------
      LOOP:  cpu time     68.1359: real time      9.7727

 eigenvalue-minimisations  :  4436
 total energy-change (2. order) :-0.2526897E+04  (-0.2405015E+04)
 number of electron     400.0000000 magnetization 
 augmentation part      400.0000000 magnetization 

 Free energy of the ion-electron system (eV)
  ---------------------------------------------------
  alpha Z        PSCENC =       318.41319391
  Ewald energy   TEWEN  =     30862.42824000
  -Hartree energ DENC   =    -43920.85597455
  -exchange      EXHF   =         0.00000000
  -V(xc)+E(xc)   XCENC  =       283.03995574
  PAW double counting   =      4337.97084573    -3548.78544197
  entropy T*S    EENTRO =         0.00000000
  eigenvalues    EBANDS =     -2169.38631052
  atomic energy  EATOM  =     13444.54662946
  Solvation  Ediel_sol  =         0.00000000
  ---------------------------------------------------
  free energy    TOTEN  =      -392.62886219 eV

  energy without entropy =     -392.62886219  energy(sigma->0) =     -392.62886219


--------------------------------------------------------------------------------------------------------




--------------------------------------- Iteration      1(   3)  ---------------------------------------


     EDDAV:  cpu time     69.1549: real time      9.9173
 BZINTS: Fermi energy:    1.476599;  400.000000 electrons
         Band energy:-0.248150E+04;  BLOECHL correction:   -0.088860
       DOS:  cpu time      0.1285: real time      0.0184
    --------------------------------------------
      LOOP:  cpu time     69.2834: real time      9.9357

 eigenvalue-minimisations  :  4512
 total energy-change (2. order) :-0.3121136E+03  (-0.3052068E+03)
 number of electron     400.0000000 magnetization 
 augmentation part      400.0000000 magnetization 

 Free energy of the ion-electron system (eV)
  ---------------------------------------------------
  alpha Z        PSCENC =       318.41319391
  Ewald energy   TEWEN  =     30862.42824000
  -Hartree energ DENC   =    -43920.85597455
  -exchange      EXHF   =         0.00000000
  -V(xc)+E(xc)   XCENC  =       283.03995574
  PAW double counting   =      4337.97084573    -3548.78544197
  entropy T*S    EENTRO =         0.00000000
  eigenvalues    EBANDS =     -2481.49994372
  atomic energy  EATOM  =     13444.54662946
  Solvation  Ediel_sol  =         0.00000000
  ---------------------------------------------------
  free energy    TOTEN  =      -704.74249539 eV

  energy without entropy =     -704.74249539  energy(sigma->0) =     -704.74249539


--------------------------------------------------------------------------------------------------------




--------------------------------------- Iteration      1(   4)  ---------------------------------------


     EDDAV:  cpu time     72.4161: real time     10.3812
 BZINTS: Fermi energy:    1.420917;  400.000000 electrons
         Band energy:-0.249977E+04;  BLOECHL correction:   -0.093291
       DOS:  cpu time      0.1267: real time      0.0181
    --------------------------------------------
      LOOP:  cpu time     72.5428: real time     10.3993

 eigenvalue-minimisations  :  4816
 total energy-change (2. order) :-0.1827230E+02  (-0.1814062E+02)
 number of electron     400.0000000 magnetization 
 augmentation part      400.0000000 magnetization 

 Free energy of the ion-electron system (eV)
  ---------------------------------------------------
  alpha Z        PSCENC =       318.41319391
  Ewald energy   TEWEN  =     30862.42824000
  -Hartree energ DENC   =    -43920.85597455
  -exchange      EXHF   =         0.00000000
  -V(xc)+E(xc)   XCENC  =       283.03995574
  PAW double counting   =      4337.97084573    -3548.78544197
  entropy T*S    EENTRO =         0.00000000
  eigenvalues    EBANDS =     -2499.77224123
  atomic energy  EATOM  =     13444.54662946
  Solvation  Ediel_sol  =         0.00000000
  ---------------------------------------------------
  free energy    TOTEN  =      -723.01479290 eV

  energy without entropy =     -723.01479290  energy(sigma->0) =     -723.01479290


--------------------------------------------------------------------------------------------------------




--------------------------------------- Iteration      1(   5)  ---------------------------------------


     EDDAV:  cpu time     72.9738: real time     10.4613
 BZINTS: Fermi energy:    1.418259;  400.000000 electrons
         Band energy:-0.250052E+04;  BLOECHL correction:   -0.093678
       DOS:  cpu time      0.1267: real time      0.0181
    CHARGE:  cpu time      1.5052: real time      0.3003
    MIXING:  cpu time      0.1054: real time      0.0155
    --------------------------------------------
      LOOP:  cpu time     74.7115: real time     10.7953

 eigenvalue-minimisations  :  4880
 total energy-change (2. order) :-0.7447243E+00  (-0.7432599E+00)
 number of electron     399.9999967 magnetization 
 augmentation part       -1.5979234 magnetization 

 Broyden mixing:
  rms(total) = 0.44767E+01    rms(broyden)= 0.44759E+01
  rms(prec ) = 0.52720E+01
  weight for this iteration     100.00

 Free energy of the ion-electron system (eV)
  ---------------------------------------------------
  alpha Z        PSCENC =       318.41319391
  Ewald energy   TEWEN  =     30862.42824000
  -Hartree energ DENC   =    -43920.85597455
  -exchange      EXHF   =         0.00000000
  -V(xc)+E(xc)   XCENC  =       283.03995574
  PAW double counting   =      4337.97084573    -3548.78544197
  entropy T*S    EENTRO =         0.00000000
  eigenvalues    EBANDS =     -2500.51696556
  atomic energy  EATOM  =     13444.54662946
  Solvation  Ediel_sol  =         0.00000000
  ---------------------------------------------------
  free energy    TOTEN  =      -723.75951723 eV

  energy without entropy =     -723.75951723  energy(sigma->0) =     -723.75951723


--------------------------------------------------------------------------------------------------------




--------------------------------------- Iteration      1(   6)  ---------------------------------------


    POTLOK:  cpu time      3.3580: real time      0.4797
    SETDIJ:  cpu time      0.3049: real time      0.0436
    EDDIAG:  cpu time      7.6872: real time      1.1012
  RMM-DIIS:  cpu time      6.4619: real time      2.8611
    ORTHCH:  cpu time      0.8323: real time      0.4234
 BZINTS: Fermi energy:    1.543896;  400.000000 electrons
         Band energy:-0.204499E+04;  BLOECHL correction:   -0.009078
       DOS:  cpu time      0.0347: real time      0.0174
    CHARGE:  cpu time      0.8483: real time      0.2977
    MIXING:  cpu time      0.1119: real time      0.0160
    --------------------------------------------
      LOOP:  cpu time     19.6392: real time      5.2400

 eigenvalue-minimisations  :  3864
 total energy-change (2. order) : 0.7751564E+02  (-0.2362252E+02)
 number of electron     399.9999972 magnetization 
 augmentation part       -3.8569055 magnetization 

 Broyden mixing:
  rms(total) = 0.15934E+01    rms(broyden)= 0.15933E+01
  rms(prec ) = 0.19347E+01
  weight for this iteration     100.00

 eigenvalues of (default mixing * dielectric matrix)
  average eigenvalue GAMMA=   1.2389
  1.2389

 Free energy of the ion-electron system (eV)
  ---------------------------------------------------
  alpha Z        PSCENC =       318.41319391
  Ewald energy   TEWEN  =     30862.42824000
  -Hartree energ DENC   =    -44321.10685437
  -exchange      EXHF   =         0.00000000
  -V(xc)+E(xc)   XCENC  =       311.59468469
  PAW double counting   =      5089.88254769    -4307.01490311
  entropy T*S    EENTRO =         0.00000000
  eigenvalues    EBANDS =     -2044.98741107
  atomic energy  EATOM  =     13444.54662946
  Solvation  Ediel_sol  =         0.00000000
  ---------------------------------------------------
  free energy    TOTEN  =      -646.24387280 eV

  energy without entropy =     -646.24387280  energy(sigma->0) =     -646.24387280


--------------------------------------------------------------------------------------------------------




--------------------------------------- Iteration      1(   7)  ---------------------------------------


    POTLOK:  cpu time      3.3652: real time      0.4810
    SETDIJ:  cpu time      0.3024: real time      0.0434
    EDDIAG:  cpu time      7.6858: real time      1.1037
  RMM-DIIS:  cpu time      6.7944: real time      3.1034
    ORTHCH:  cpu time      0.8446: real time      0.4250
 BZINTS: Fermi energy:    1.276305;  400.000000 electrons
         Band energy:-0.192045E+04;  BLOECHL correction:   -0.085902
       DOS:  cpu time      0.0367: real time      0.0183
    CHARGE:  cpu time      0.8552: real time      0.2973
    MIXING:  cpu time      0.1115: real time      0.0160
    --------------------------------------------
      LOOP:  cpu time     19.9958: real time      5.4881

 eigenvalue-minimisations  :  4240
 total energy-change (2. order) :-0.1509791E+01  (-0.8724825E+01)
 number of electron     399.9999974 magnetization 
 augmentation part       -4.4142932 magnetization 

 Broyden mixing:
  rms(total) = 0.10503E+01    rms(broyden)= 0.10501E+01
  rms(prec ) = 0.14760E+01
  weight for this iteration     100.00

 eigenvalues of (default mixing * dielectric matrix)
  average eigenvalue GAMMA=   0.9394
  1.1561  0.7228

 Free energy of the ion-electron system (eV)
  ---------------------------------------------------
  alpha Z        PSCENC =       318.41319391
  Ewald energy   TEWEN  =     30862.42824000
  -Hartree energ DENC   =    -44453.57941496
  -exchange      EXHF   =         0.00000000
  -V(xc)+E(xc)   XCENC  =       320.19727844
  PAW double counting   =      5353.80894918    -4573.11743645
  entropy T*S    EENTRO =         0.00000000
  eigenvalues    EBANDS =     -1920.45110381
  atomic energy  EATOM  =     13444.54662946
  Solvation  Ediel_sol  =         0.00000000
  ---------------------------------------------------
  free energy    TOTEN  =      -647.75366422 eV

  energy without entropy =     -647.75366422  energy(sigma->0) =     -647.75366422


--------------------------------------------------------------------------------------------------------




--------------------------------------- Iteration      1(   8)  ---------------------------------------


    POTLOK:  cpu time      3.3443: real time      0.4784
    SETDIJ:  cpu time      0.3031: real time      0.0434
    EDDIAG:  cpu time      7.6724: real time      1.0984
  RMM-DIIS:  cpu time      6.8578: real time      3.0539
    ORTHCH:  cpu time      0.8346: real time      0.4240
 BZINTS: Fermi energy:    1.527722;  400.000000 electrons
         Band energy:-0.189707E+04;  BLOECHL correction:   -0.062808
       DOS:  cpu time      0.0370: real time      0.0185
    CHARGE:  cpu time      0.8387: real time      0.2968
    MIXING:  cpu time      0.1381: real time      0.0197
    --------------------------------------------
      LOOP:  cpu time     20.0260: real time      5.4331

 eigenvalue-minimisations  :  4193
 total energy-change (2. order) : 0.1199857E+01  (-0.9564964E+00)
 number of electron     399.9999974 magnetization 
 augmentation part       -4.8400574 magnetization 

 Broyden mixing:
  rms(total) = 0.72892E+00    rms(broyden)= 0.72889E+00
  rms(prec ) = 0.79900E+00
  weight for this iteration     100.00

 eigenvalues of (default mixing * dielectric matrix)
  average eigenvalue GAMMA=   1.4215
  2.0605  1.6816  0.5225

 Free energy of the ion-electron system (eV)
  ---------------------------------------------------
  alpha Z        PSCENC =       318.41319391
  Ewald energy   TEWEN  =     30862.42824000
  -Hartree energ DENC   =    -44477.54354876
  -exchange      EXHF   =         0.00000000
  -V(xc)+E(xc)   XCENC  =       322.48109834
  PAW double counting   =      5411.20902098    -4631.01942176
  entropy T*S    EENTRO =         0.00000000
  eigenvalues    EBANDS =     -1897.06901987
  atomic energy  EATOM  =     13444.54662946
  Solvation  Ediel_sol  =         0.00000000
  ---------------------------------------------------
  free energy    TOTEN  =      -646.55380770 eV

  energy without entropy =     -646.55380770  energy(sigma->0) =     -646.55380770


--------------------------------------------------------------------------------------------------------




--------------------------------------- Iteration      1(   9)  ---------------------------------------


    POTLOK:  cpu time      3.3556: real time      0.4795
    SETDIJ:  cpu time      0.3043: real time      0.0435
    EDDIAG:  cpu time      7.8439: real time      1.1236
  RMM-DIIS:  cpu time      6.6494: real time      2.9555
    ORTHCH:  cpu time      0.8332: real time      0.4235
 BZINTS: Fermi energy:    1.616821;  400.000000 electrons
         Band energy:-0.191035E+04;  BLOECHL correction:   -0.091621
       DOS:  cpu time      0.0376: real time      0.0188
    CHARGE:  cpu time      0.8359: real time      0.2972
    MIXING:  cpu time      0.1417: real time      0.0202
    --------------------------------------------
      LOOP:  cpu time     20.0015: real time      5.3618

 eigenvalue-minimisations  :  4016
 total energy-change (2. order) : 0.2803744E+00  (-0.7459290E+00)
 number of electron     399.9999974 magnetization 
 augmentation part       -4.4994910 magnetization 

 Broyden mixing:
  rms(total) = 0.38144E+00    rms(broyden)= 0.38143E+00
  rms(prec ) = 0.55451E+00
  weight for this iteration     100.00

 eigenvalues of (default mixing * dielectric matrix)
  average eigenvalue GAMMA=   1.2603
  2.4998  1.3505  0.7000  0.4911

 Free energy of the ion-electron system (eV)
  ---------------------------------------------------
  alpha Z        PSCENC =       318.41319391
  Ewald energy   TEWEN  =     30862.42824000
  -Hartree energ DENC   =    -44463.04913047
  -exchange      EXHF   =         0.00000000
  -V(xc)+E(xc)   XCENC  =       322.09870400
  PAW double counting   =      5419.52371452    -4639.88067994
  entropy T*S    EENTRO =         0.00000000
  eigenvalues    EBANDS =     -1910.35410480
  atomic energy  EATOM  =     13444.54662946
  Solvation  Ediel_sol  =         0.00000000
  ---------------------------------------------------
  free energy    TOTEN  =      -646.27343333 eV

  energy without entropy =     -646.27343333  energy(sigma->0) =     -646.27343333


--------------------------------------------------------------------------------------------------------




--------------------------------------- Iteration      1(  10)  ---------------------------------------


    POTLOK:  cpu time      3.3636: real time      0.4824
    SETDIJ:  cpu time      0.3033: real time      0.0435
    EDDIAG:  cpu time      7.7022: real time      1.1065
  RMM-DIIS:  cpu time      7.1460: real time      3.2096
    ORTHCH:  cpu time      0.8297: real time      0.4217
 BZINTS: Fermi energy:    1.647051;  400.000000 electrons
         Band energy:-0.188175E+04;  BLOECHL correction:   -0.096575
       DOS:  cpu time      0.0344: real time      0.0172
    CHARGE:  cpu time      0.8629: real time      0.3008
    MIXING:  cpu time      0.1211: real time      0.0173
    --------------------------------------------
      LOOP:  cpu time     20.3633: real time      5.5991

 eigenvalue-minimisations  :  4320
 total energy-change (2. order) : 0.4147219E+00  (-0.9845298E-01)
 number of electron     399.9999974 magnetization 
 augmentation part       -4.5225568 magnetization 

 Broyden mixing:
  rms(total) = 0.29084E+00    rms(broyden)= 0.29082E+00
  rms(prec ) = 0.39503E+00
  weight for this iteration     100.00

 eigenvalues of (default mixing * dielectric matrix)
  average eigenvalue GAMMA=   1.1058
  2.5084  1.0698  1.0698  0.5307  0.3505

 Free energy of the ion-electron system (eV)
  ---------------------------------------------------
  alpha Z        PSCENC =       318.41319391
  Ewald energy   TEWEN  =     30862.42824000
  -Hartree energ DENC   =    -44492.63787148
  -exchange      EXHF   =         0.00000000
  -V(xc)+E(xc)   XCENC  =       323.70611931
  PAW double counting   =      5459.14580542    -4679.70874501
  entropy T*S    EENTRO =         0.00000000
  eigenvalues    EBANDS =     -1881.75208302
  atomic energy  EATOM  =     13444.54662946
  Solvation  Ediel_sol  =         0.00000000
  ---------------------------------------------------
  free energy    TOTEN  =      -645.85871142 eV

  energy without entropy =     -645.85871142  energy(sigma->0) =     -645.85871142


--------------------------------------------------------------------------------------------------------




--------------------------------------- Iteration      1(  11)  ---------------------------------------


    POTLOK:  cpu time      3.3824: real time      0.4857
    SETDIJ:  cpu time      0.3015: real time      0.0434
    EDDIAG:  cpu time      7.6799: real time      1.1042
  RMM-DIIS:  cpu time      7.6556: real time      3.4654
    ORTHCH:  cpu time      0.8249: real time      0.4192
 BZINTS: Fermi energy:    1.653031;  400.000000 electrons
         Band energy:-0.186483E+04;  BLOECHL correction:   -0.096802
       DOS:  cpu time      0.0361: real time      0.0180
    CHARGE:  cpu time      0.8387: real time      0.2971
    MIXING:  cpu time      0.1434: real time      0.0205
    --------------------------------------------
      LOOP:  cpu time     20.8625: real time      5.8535

 eigenvalue-minimisations  :  4769
[...]
  299                m_alltoallv_z                         0.018579                    5   7
  300                map_scatter                           0.006743                    5   7
  301              map_backward                          0.066077                     12   6
  302                map_gather                            0.008626                    6   7
  303                m_alltoallv_z                         0.021216                    6   7
  304                map_scatter                           0.036185                    6   7
  305        ggaall_grid                           0.063068                            1   3
  306        m_sumb_d                              0.000047                            5   3
  307        forhar                                0.128008                            2   3
  308          m_sumb_d                              0.000406                          2   4
  309        strehar                               0.004524                            1   3
  310          m_sumb_d                              0.000260                          1   4
  311        chggra                                0.066276                            1   3
  312          fft3d_mpi                             0.062561                          3   4
  313            fftbrc_mpi                            0.061049                        3   5
  314              fftbas_plan_mpi                       0.061045                      3   6
  315                map_forward                           0.035556                    4   7
  316                  map_gather                            0.000008                  2   8
  317                  m_alltoallv_z                         0.035520                  2   8
  318                  map_scatter                           0.000011                  2   8
  319                map_backward                          0.000031                    2   7
  320                  map_gather                            0.000004                  1   8
  321                  m_alltoallv_z                         0.000017                  1   8
  322                  map_scatter                           0.000004                  1   8
  323          m_sumb_d                              0.000008                          2   4
  324          pothar                                0.000648                          1   4
  325            m_sumb_d                              0.000194                        1   5
  326        brmix                                 0.041164                            1   3
  327          m_sumb_d                              0.000144                          6   4
  328          brpre                                 0.000372                          1   4
  329          setg0                                 0.008654                          1   4
  330          broyd                                 0.028583                          1   4
  331            m_sumb_d                              0.000108                       39   5
  332            brget                                 0.003254                      169   5
  333            brsav                                 0.002170                       37   5
  334        m_bcast_d                             0.000050                            2   3
  335      potlok                                0.471464                              1   2
  336        fft3d_mpi                             0.192200                           13   3
  337          fftbrc_mpi                            0.170222                         13   4
  338            fftbas_plan_mpi                       0.170208                       13   5
  339              dfftw_execute                         0.055030                     39   6
  340              map_forward                           0.049307                     14   6
  341                map_gather                            0.013605                    8   7
  342                m_alltoallv_z                         0.027034                    8   7
  343                map_scatter                           0.008611                    8   7
  344              map_backward                          0.064574                     12   6
  345                map_gather                            0.008653                    6   7
  346                m_alltoallv_z                         0.019844                    6   7
  347                map_scatter                           0.036022                    6   7
  348        ggaall_grid                           0.062219                            1   3
  349        m_sumb_d                              0.000540                            5   3
  350        pothar                                0.010429                            1   3
  351          m_sumb_d                              0.000016                          1   4
  352        m_bcast_d                             0.002725                            1   3
  353      potlok_metagga                        0.000001                              1   2
  354      set_dd_magatom                        0.000005                              1   2
  355      set_dd_paw                            0.026925                              1   2
  356        m_sumb_d                              0.001862                            7   3
  357      m_bcast_d                             0.000031                              2   2
  358      fftwav_mpi                            7.012267                           1323   2
  359        fftwav                                7.002914                         1323   3
  360          fft3d                                 4.971561                       1323   4
  361      densta                                0.018619                              1   2
 
 Flat profile
 ============
 
             routine name                   CPU           calls
 ---------------------------------------------------------------
 i2                                     35.784600        9822
 eddiag                                 32.064160          32
 eddav                                  28.142106           5
 hamiltmu                               26.060415       13774
 m_sumb_d                               24.232244       14264
 newband                                12.030468       14033
 total_time                             11.798065           1
 i3                                     11.086159        9822
 rpromu_acc                             10.797153       14110
 fft3d                                   8.689608      158212
 potlok                                  7.052291          34
 phaser                                  5.503318         350
 orthch                                  5.461551          33
 lapack                                  3.807965        3952
 orth1                                   3.524677       12311
 racc0mu_acc                             3.373381       13774
 raccmu_                                 3.089710       13774
 m_alltoall_d                            2.772680      213878
 fftwav                                  2.691909       98247
 choleski                                2.461869         231
 cnorma                                  2.388774      155550
 ggaall_grid                             2.161992          35
 dfftw_execute                           2.054970        1590
 m_alltoallv_z                           2.004162         610
 w1_gemv                                 1.833575      261864
 map_scatter                             1.736350         610
 m_bcast_z                               1.298670        5716
 eccp                                    1.272765       68167
 w1_copy                                 1.094506      137516
 overl_mu                                1.063272       13774
 fft3d_mpi                               1.014886       60498
 setdij_                                 0.994551          61
 w1_dscal                                0.934742      109836
 set_dd_paw                              0.875494          35
 map_gather                              0.858332         610
 lincom                                  0.780771         490
 augmentation_charge                     0.745715          33
 w1_gaxpy                                0.726143       96220
 densta                                  0.689240          38
 w1_dot                                  0.684039       13950
 w1_daxpy                                0.524412       75886
 rspher_all                              0.522328          14
 redis_pw                                0.481028       22243
 redis_proj                              0.432386       28017
 overl1                                  0.423048       65466
 init_hip                                0.416363           1
 apply_precond                           0.359194      115802
 pothar                                  0.353957          35
 elmin                                   0.309041           1
 setg0                                   0.299394          34
 broyd                                   0.282717          33
 eddrmm                                  0.246063          32
 zhegv                                   0.235863       23993
 ggemm                                   0.233798        5072
 kinhamil                                0.224863       59965
 vhamil                                  0.220389       59965
 fftext_mpi                              0.219239       59965
 eccp_nl                                 0.181912      103700
 force_and_stress                        0.175724           1
 fftwav_mpi                              0.161430       98247
 depsum                                  0.153158          33
 soft_charge                             0.145158          33
 brmix                                   0.141566          33
 m_bcast_d                               0.130120        7942
 forhar                                  0.127602           2
 overl                                   0.122254       13746
 setup_precond                           0.107493       16317
 fftbas_plan_mpi                         0.104535         533
 stufak                                  0.097140           1
 forloc                                  0.086182           1
 set_charge                              0.070246          33
 proall                                  0.066522           1
 rpro_isp                                0.057357          91
 brget                                   0.055205        2931
 pw_charge                               0.033898       11776
 brsav                                   0.030496         699
 strnlr                                  0.023874           1
 hip_hipfft_makeplan                     0.019837           6
 i1                                      0.019600        9822
 strkin                                  0.018072           1
 fft_gq                                  0.015151          33
 hamilt_local                            0.013159       14112
 w1_projall                              0.013093       12654
 brpre                                   0.012344          33
 inisym                                  0.011902           1
 truncate_high_frequency_w1              0.009088       62170
 rsp                                     0.008324           1
 fornlr                                  0.007641           1
 strelo                                  0.007256           1
 strehar                                 0.004264           1
 brgrid                                  0.003315           1
 chggra                                  0.003059           1
 map_backward                            0.002389         560
 map_forward                             0.002132         506
 fewald                                  0.001560           1
 fftbrc_mpi                              0.000710         533
 rcp                                     0.000565           1
 hip_init_hipblas                        0.000270           1
 set_dd_magatom                          0.000232          35
 vectorpot                               0.000208          34
 shift_bands_between_low_high            0.000148         224
 hip_init_rocsolver                      0.000069           1
 crpa_reader                             0.000052           1
 fordep                                  0.000047           1
 potlok_metagga                          0.000029          34
 posmap                                  0.000021           2
 hip_hipfft_makeplans                    0.000005           3
 rotate_active_occupied_orbital          0.000005           1
 redis_pw_over_bands                     0.000000           1
 ---------------------------------------------------------------
  summed up times    273.667774915695     
 
 Accumulative profile
 ====================
 
             routine name                   CPU           calls
 ---------------------------------------------------------------
 total_time                            273.667775           1
 elmin                                 240.742990           1
 eddrmm                                114.852848          32
 eddav                                  48.714032           5
 i2                                     41.665102        9822
 eddiag                                 35.213954          32
 hamiltmu                               35.168711       13774
 m_sumb_d                               24.232244       14264
 orthch                                 17.207842          33
 potlok                                 16.198179          34
 i3                                     16.127981        9822
 newband                                13.218887       14033
 rpromu_acc                             10.797153       14110
 fftwav_mpi                             10.186515       98247
 fftwav                                 10.025085       98247
 set_charge                              9.840555          33
 fft3d_mpi                               9.134897       60498
 fft3d                                   8.689608      158212
 soft_charge                             8.300655          33
 raccmu_                                 7.526363       13774
 force_and_stress                        7.167053           1
 w1_projall                              6.950263       12654
 fftbrc_mpi                              6.763580         533
 fftbas_plan_mpi                         6.762870         533
 phaser                                  5.503318         350
 rpro_isp                                4.242421          91
 strnlr                                  4.229576           1
 lapack                                  3.807965        3952
 orth1                                   3.524677       12311
 racc0mu_acc                             3.373381       13774
 map_backward                            2.867202         560
 m_alltoall_d                            2.772680      213878
 cnorma                                  2.570686      155550
 choleski                                2.461869         231
 w1_gemv                                 2.256623      261864
 ggaall_grid                             2.161992          35
 dfftw_execute                           2.054970        1590
 m_alltoallv_z                           2.004162         610
 redis_proj                              1.913128       28017
 kinhamil                                1.834123       59965
 redis_pw                                1.772967       22243
 map_scatter                             1.736350         610
 map_forward                             1.736163         506
 fftext_mpi                              1.609260       59965
 fornlr                                  1.407211           1
 augmentation_charge                     1.299460          33
 m_bcast_z                               1.298670        5716
 eccp                                    1.272765       68167
 w1_copy                                 1.094506      137516
 overl_mu                                1.063272       13774
 setdij_                                 1.028297          61
 set_dd_paw                              0.947985          35
 w1_dscal                                0.934742      109836
 map_gather                              0.858332         610
 brmix                                   0.832707          33
 lincom                                  0.780771         490
 w1_gaxpy                                0.726143       96220
 densta                                  0.689240          38
 w1_dot                                  0.684039       13950
 proall                                  0.615814           1
 w1_daxpy                                0.524412       75886
 rspher_all                              0.522328          14
 hamilt_local                            0.485738       14112
 overl1                                  0.423048       65466
 init_hip                                0.416363           1
 pothar                                  0.407439          35
 broyd                                   0.370763          33
 apply_precond                           0.359194      115802
 fft_gq                                  0.323731          33
 setg0                                   0.299394          34
 i1                                      0.278461        9822
 zhegv                                   0.235863       23993
 ggemm                                   0.233798        5072
 vhamil                                  0.220389       59965
 eccp_nl                                 0.181912      103700
 depsum                                  0.170195          33
 m_bcast_d                               0.130120        7942
 forhar                                  0.128008           2
 overl                                   0.122254       13746
 setup_precond                           0.107493       16317
 fordep                                  0.098440           1
 stufak                                  0.097140           1
 forloc                                  0.089564           1
 chggra                                  0.066276           1
 brget                                   0.055205        2931
 pw_charge                               0.033898       11776
 brsav                                   0.030496         699
 hip_hipfft_makeplans                    0.019842           3
 hip_hipfft_makeplan                     0.019837           6
 strkin                                  0.018172           1
 brpre                                   0.012344          33
 inisym                                  0.011923           1
 fewald                                  0.010661           1
 truncate_high_frequency_w1              0.009088       62170
 rsp                                     0.008324           1
 strelo                                  0.007268           1
 strehar                                 0.004524           1
 brgrid                                  0.003315           1
 rcp                                     0.000565           1
 hip_init_hipblas                        0.000270           1
 set_dd_magatom                          0.000232          35
 vectorpot                               0.000208          34
 shift_bands_between_low_high            0.000148         224
 hip_init_rocsolver                      0.000069           1
 crpa_reader                             0.000052           1
 potlok_metagga                          0.000029          34
 posmap                                  0.000021           2
 rotate_active_occupied_orbital          0.000005           1
 redis_pw_over_bands                     0.000000           1
 ---------------------------------------------------------------
 
Profiling took   0.464170  0.260404  0.002931  0.002785 seconds
Profiling took   0.316790 seconds
