srun: ROUTE: split_hostlist: hl=b01r3n00 tree_width 0
 running on    4 total cores
 distrk:  each k-point on    4 cores,    1 groups
 distr:  one band on    1 cores,    4 groups
 HIP runtime initialized ...    4 DCUs will be used
 Created    4 streams on each DCU
 vasp.6.3.2 27Jun22 (build Mar 15 2023 15:45:48) complex                        
  
 POSCAR found type information on POSCAR C F SiK 
 POSCAR found :  4 types and      98 ions
 Reading from existing POTCAR
 scaLAPACK will be used selectively (only on CPU)
 Reading from existing POTCAR
 LDA part: xc-table for Pade appr. of Perdew
 POSCAR found type information on POSCAR C F SiK 
 POSCAR found :  4 types and      98 ions
 POSCAR, INCAR and KPOINTS ok, starting setup
 FFT: planning ... GRIDC
 FFT: planning ... GRID_SOFT
 FFT: planning ... GRID
 WAVECAR not read
 entering main loop
       N       E                     dE             d eps       ncg     rms          rms(c)
DAV:   1     0.213426841656E+04    0.21343E+04   -0.16894E+05  3528   0.136E+03
DAV:   2    -0.392628862192E+03   -0.25269E+04   -0.24050E+04  4436   0.267E+02
DAV:   3    -0.704742495389E+03   -0.31211E+03   -0.30521E+03  4512   0.879E+01
DAV:   4    -0.723014792902E+03   -0.18272E+02   -0.18141E+02  4816   0.224E+01
DAV:   5    -0.723759517231E+03   -0.74472E+00   -0.74326E+00  4880   0.409E+00    0.448E+01
RMM:   6    -0.646243872805E+03    0.77516E+02   -0.23623E+02  3864   0.205E+01    0.159E+01
RMM:   7    -0.647753664218E+03   -0.15098E+01   -0.87248E+01  4240   0.135E+01    0.105E+01
RMM:   8    -0.646553807698E+03    0.11999E+01   -0.95650E+00  4193   0.522E+00    0.729E+00
RMM:   9    -0.646273433328E+03    0.28037E+00   -0.74593E+00  4016   0.410E+00    0.381E+00
RMM:  10    -0.645858711415E+03    0.41472E+00   -0.98453E-01  4320   0.179E+00    0.291E+00
RMM:  11    -0.645585033436E+03    0.27368E+00   -0.39696E-01  4769   0.885E-01    0.161E+00
RMM:  12    -0.645504419529E+03    0.80614E-01   -0.51832E-01  4580   0.949E-01    0.915E-01
RMM:  13    -0.645504015273E+03    0.40426E-03   -0.38002E-01  5379   0.826E-01    0.985E-01
RMM:  14    -0.645439551214E+03    0.64464E-01   -0.80667E-02  4362   0.406E-01    0.592E-01
RMM:  15    -0.645420197966E+03    0.19353E-01   -0.52660E-02  4823   0.322E-01    0.334E-01
RMM:  16    -0.645402504648E+03    0.17693E-01   -0.28889E-02  5253   0.194E-01    0.328E-01
RMM:  17    -0.645401807837E+03    0.69681E-03   -0.20425E-02  5651   0.147E-01    0.368E-01
RMM:  18    -0.645403466779E+03   -0.16589E-02   -0.17864E-02  5863   0.136E-01    0.215E-01
RMM:  19    -0.645404633373E+03   -0.11666E-02   -0.69093E-03  5878   0.994E-02    0.186E-01
WARNING in EDDRMM: call to ZHEGV failed, returncode =   6  3     20
RMM:  20    -0.645407027933E+03   -0.23946E-02   -0.63292E-03  5660   0.104E-01    0.858E-02
RMM:  21    -0.645410527794E+03   -0.34999E-02   -0.31640E-03  6178   0.719E-02    0.106E-01
RMM:  22    -0.645412410682E+03   -0.18829E-02   -0.13528E-03  6299   0.410E-02    0.871E-02
RMM:  23    -0.645414984979E+03   -0.25743E-02   -0.12587E-03  5854   0.424E-02    0.646E-02
RMM:  24    -0.645415993740E+03   -0.10088E-02   -0.85587E-04  5878   0.361E-02    0.316E-02
RMM:  25    -0.645416537685E+03   -0.54395E-03   -0.28238E-04  6506   0.211E-02    0.328E-02
RMM:  26    -0.645416901376E+03   -0.36369E-03   -0.14965E-04  6119   0.150E-02    0.171E-02
RMM:  27    -0.645417150518E+03   -0.24914E-03   -0.12141E-04  6133   0.137E-02    0.148E-02
RMM:  28    -0.645417210871E+03   -0.60353E-04   -0.53063E-05  6076   0.866E-03    0.795E-03
WARNING in EDDRMM: call to ZHEGV failed, returncode =   6  3     18
RMM:  29    -0.645417284613E+03   -0.73742E-04   -0.27786E-05  5202   0.630E-03    0.168E-02
 num prob  num prob  num prob RMM:  30    -0.645417342516E+03   -0.57903E-04   -0.20984E-05  4996   0.534E-03    0.636E-03
RMM:  31    -0.645417381095E+03   -0.38579E-04   -0.14874E-05  4661   0.440E-03    0.144E-02
WARNING in EDDRMM: call to ZHEGV failed, returncode =   6  3      9
 num prob  num prob  num prob  num prob  num prob  num prob  num prob RMM:  32    -0.645417396504E+03   -0.15409E-04   -0.85505E-06  3874   0.344E-03    0.131E-02
 num prob  num prob RMM:  33    -0.645417411403E+03   -0.14900E-04   -0.66597E-06  3709   0.300E-03    0.114E-02
 num prob  num prob  num prob  num prob  num prob  num prob  num prob  num prob  num prob  num prob  num prob  num prob  num prob  num prob RMM:  34    -0.645417414133E+03   -0.27299E-05   -0.30608E-06  2962   0.239E-03    0.916E-03
 num prob  num prob  num prob RMM:  35    -0.645417417101E+03   -0.29676E-05   -0.31245E-06  3028   0.212E-03    0.519E-03
 num prob  num prob  num prob  num prob  num prob  num prob  num prob  num prob RMM:  36    -0.645417419398E+03   -0.22977E-05   -0.18600E-06  2566   0.180E-03    0.512E-03
 num prob  num prob  num prob RMM:  37    -0.645417420096E+03   -0.69762E-06   -0.16270E-06  2519   0.160E-03
   1 F= -.64541742E+03 E0= -.64541742E+03  d E =0.000000E+00
 -----------------------------------------------------------------------------
|                                                                             |
|           W    W    AA    RRRRR   N    N  II  N    N   GGGG   !!!           |
|           W    W   A  A   R    R  NN   N  II  NN   N  G    G  !!!           |
|           W    W  A    A  R    R  N N  N  II  N N  N  G       !!!           |
|           W WW W  AAAAAA  RRRRR   N  N N  II  N  N N  G  GGG   !            |
|           WW  WW  A    A  R   R   N   NN  II  N   NN  G    G                |
|           W    W  A    A  R    R  N    N  II  N    N   GGGG   !!!           |
|                                                                             |
|     Tetrahedron method does not include variations of the Fermi             |
|     occupations, so forces and stress will be inaccurate. We suggest        |
|     using a different smearing scheme ISMEAR = 1 or 2 for metals in         |
|     relaxations.                                                            |
|                                                                             |
 -----------------------------------------------------------------------------

 PROFILE, used timers:     361
