srun: ROUTE: split_hostlist: hl=b01r3n00 tree_width 0
 running on    4 total cores
 distrk:  each k-point on    1 cores,    4 groups
 distr:  one band on    1 cores,    1 groups
 HIP runtime initialized ...    4 DCUs will be used
 Created    4 streams on each DCU
 vasp.6.3.2 27Jun22 (build Mar 15 2023 15:45:48) complex                        
  
 POSCAR found type information on POSCAR C F SiK 
 POSCAR found :  4 types and      98 ions
 Reading from existing POTCAR
 scaLAPACK will be used selectively (only on CPU)
 Reading from existing POTCAR
 LDA part: xc-table for Pade appr. of Perdew
 POSCAR found type information on POSCAR C F SiK 
 POSCAR found :  4 types and      98 ions
 Optimize memory usage for KPAR
 POSCAR, INCAR and KPOINTS ok, starting setup
 FFT: planning ... GRIDC
 FFT: planning ... GRID_SOFT
 FFT: planning ... GRID
 WAVECAR not read
 entering main loop
       N       E                     dE             d eps       ncg     rms          rms(c)
DAV:   1     0.213805118249E+04    0.21381E+04   -0.16855E+05  3500   0.137E+03
DAV:   2    -0.394235547731E+03   -0.25323E+04   -0.24187E+04  4448   0.269E+02
DAV:   3    -0.705055652563E+03   -0.31082E+03   -0.30442E+03  4472   0.884E+01
DAV:   4    -0.723063365402E+03   -0.18008E+02   -0.17883E+02  4816   0.225E+01
DAV:   5    -0.723761103967E+03   -0.69774E+00   -0.69651E+00  4824   0.399E+00    0.448E+01
RMM:   6    -0.646207910090E+03    0.77553E+02   -0.23802E+02  3817   0.207E+01    0.159E+01
RMM:   7    -0.647745039887E+03   -0.15371E+01   -0.88421E+01  4187   0.137E+01    0.105E+01
RMM:   8    -0.646557973250E+03    0.11871E+01   -0.96834E+00  4134   0.527E+00    0.730E+00
RMM:   9    -0.646271980361E+03    0.28599E+00   -0.76682E+00  3969   0.418E+00    0.379E+00
RMM:  10    -0.645852775968E+03    0.41920E+00   -0.99455E-01  4266   0.182E+00    0.291E+00
RMM:  11    -0.645586339661E+03    0.26644E+00   -0.40402E-01  4724   0.895E-01    0.163E+00
RMM:  12    -0.645504957089E+03    0.81383E-01   -0.49720E-01  4534   0.937E-01    0.916E-01
RMM:  13    -0.645503189785E+03    0.17673E-02   -0.38813E-01  5300   0.836E-01    0.962E-01
RMM:  14    -0.645441737638E+03    0.61452E-01   -0.75324E-02  4307   0.398E-01    0.613E-01
RMM:  15    -0.645421267242E+03    0.20470E-01   -0.51543E-02  4743   0.320E-01    0.335E-01
RMM:  16    -0.645402113597E+03    0.19154E-01   -0.30012E-02  5316   0.199E-01    0.293E-01
RMM:  17    -0.645402489974E+03   -0.37638E-03   -0.22373E-02  5652   0.152E-01    0.412E-01
RMM:  18    -0.645403334254E+03   -0.84428E-03   -0.18252E-02  5840   0.138E-01    0.213E-01
RMM:  19    -0.645404687660E+03   -0.13534E-02   -0.68134E-03  5954   0.976E-02    0.202E-01
RMM:  20    -0.645406746596E+03   -0.20589E-02   -0.60923E-03  5659   0.102E-01    0.862E-02
RMM:  21    -0.645410617372E+03   -0.38708E-02   -0.39235E-03  5887   0.824E-02    0.114E-01
RMM:  22    -0.645412397517E+03   -0.17801E-02   -0.14120E-03  6308   0.448E-02    0.968E-02
RMM:  23    -0.645414770986E+03   -0.23735E-02   -0.13414E-03  5774   0.446E-02    0.717E-02
RMM:  24    -0.645415951152E+03   -0.11802E-02   -0.10460E-03  5788   0.407E-02    0.310E-02
RMM:  25    -0.645416504607E+03   -0.55345E-03   -0.30008E-04  6372   0.223E-02    0.334E-02
RMM:  26    -0.645416867313E+03   -0.36271E-03   -0.15731E-04  6057   0.156E-02    0.172E-02
RMM:  27    -0.645417091851E+03   -0.22454E-03   -0.10930E-04  6131   0.129E-02    0.173E-02
RMM:  28    -0.645417204962E+03   -0.11311E-03   -0.59780E-05  6209   0.951E-03    0.738E-03
 num prob  num prob RMM:  29    -0.645417265483E+03   -0.60521E-04   -0.30887E-05  5002   0.650E-03    0.163E-02
WARNING in EDDRMM: call to ZHEGV failed, returncode =   8  4     27
RMM:  30    -0.645417340361E+03   -0.74878E-04   -0.21814E-05  5121   0.574E-03    0.645E-03
 num prob  num prob  num prob  num prob  num prob  num prob  num prob  num prob  num prob  num prob  num prob RMM:  31    -0.645417383267E+03   -0.42906E-04   -0.16664E-05  4705   0.478E-03    0.598E-03
WARNING in EDDRMM: call to ZHEGV failed, returncode =   8  4     31
RMM:  32    -0.645417402184E+03   -0.18917E-04   -0.10095E-05  4063   0.373E-03    0.128E-02
 num prob  num prob  num prob  num prob  num prob  num prob  num prob  num prob  num prob  num prob  num prob  num prob  num prob  num prob  num prob  num prob  num prob  num prob  num prob  num prob  num prob  num prob  num prob  num prob  num prob  num prob  num prob  num prob  num prob  num prob  num prob  num prob  num prob RMM:  33    -0.645417405278E+03   -0.30935E-05   -0.44201E-06  3148   0.288E-03    0.111E-02
 num prob  num prob  num prob  num prob  num prob  num prob  num prob  num prob RMM:  34    -0.645417411111E+03   -0.58333E-05   -0.44113E-06  3292   0.268E-03    0.606E-03
 num prob  num prob  num prob  num prob  num prob RMM:  35    -0.645417418292E+03   -0.71813E-05   -0.37162E-06  3207   0.241E-03    0.633E-03
 num prob  num prob  num prob  num prob  num prob  num prob  num prob  num prob  num prob  num prob  num prob  num prob  num prob  num prob  num prob WARNING in EDDRMM: call to ZHEGV failed, returncode =   6  3    220
RMM:  36    -0.645417418983E+03   -0.69121E-06   -0.18901E-06  2549   0.193E-03
   1 F= -.64541742E+03 E0= -.64541742E+03  d E =0.000000E+00
 -----------------------------------------------------------------------------
|                                                                             |
|           W    W    AA    RRRRR   N    N  II  N    N   GGGG   !!!           |
|           W    W   A  A   R    R  NN   N  II  NN   N  G    G  !!!           |
|           W    W  A    A  R    R  N N  N  II  N N  N  G       !!!           |
|           W WW W  AAAAAA  RRRRR   N  N N  II  N  N N  G  GGG   !            |
|           WW  WW  A    A  R   R   N   NN  II  N   NN  G    G                |
|           W    W  A    A  R    R  N    N  II  N    N   GGGG   !!!           |
|                                                                             |
|     Tetrahedron method does not include variations of the Fermi             |
|     occupations, so forces and stress will be inaccurate. We suggest        |
|     using a different smearing scheme ISMEAR = 1 or 2 for metals in         |
|     relaxations.                                                            |
|                                                                             |
 -----------------------------------------------------------------------------

 -----------------------------------------------------------------------------
|                                                                             |
|     EEEEEEE  RRRRRR   RRRRRR   OOOOOOO  RRRRRR      ###     ###     ###     |
|     E        R     R  R     R  O     O  R     R     ###     ###     ###     |
|     E        R     R  R     R  O     O  R     R     ###     ###     ###     |
|     EEEEE    RRRRRR   RRRRRR   O     O  RRRRRR       #       #       #      |
|     E        R   R    R   R    O     O  R   R                               |
|     E        R    R   R    R   O     O  R    R      ###     ###     ###     |
|     EEEEEEE  R     R  R     R  OOOOOOO  R     R     ###     ###     ###     |
|                                                                             |
|     ELF: KPAR>1 not implemented, sorry.                                     |
|                                                                             |
|       ---->  I REFUSE TO CONTINUE WITH THIS SICK JOB ... BYE!!! <----       |
|                                                                             |
 -----------------------------------------------------------------------------

1
1
1
1
