<?xml version="1.0" encoding="ISO-8859-1"?>
<modeling>
 <generator>
  <i name="program" type="string">vasp </i>
  <i name="version" type="string">6.3.2  </i>
  <i name="subversion" type="string">27Jun22 (build Mar 15 2023 15:45:48) complex                          parallel </i>
  <i name="platform" type="string">LinuxIFC </i>
  <i name="date" type="string">2024 07 19 </i>
  <i name="time" type="string">23:45:24 </i>
 </generator>
 <incar>
  <i type="string" name="SYSTEM">ni3al</i>
  <i type="int" name="ISTART">     0</i>
  <i type="string" name="PREC">Accurate</i>
  <i type="string" name="ALGO">Fast</i>
  <i name="AMIN">      0.01000000</i>
  <i type="int" name="ICHARG">     2</i>
  <i type="int" name="NELM">   150</i>
  <i type="int" name="IBRION">    -1</i>
  <i name="EDIFF">      0.00000100</i>
  <i name="EDIFFG">     -0.01000000</i>
  <i type="int" name="NSW">     0</i>
  <i type="int" name="ISIF">     2</i>
  <i name="ENCUT">    530.00000000</i>
  <i type="string" name="LREAL">Auto</i>
  <i type="int" name="ISMEAR">    -5</i>
  <i name="SIGMA">      0.10000000</i>
  <i type="int" name="LMAXMIX">     4</i>
  <i type="logical" name="LWAVE"> F  </i>
  <i type="logical" name="LCHARG"> F  </i>
  <i type="logical" name="LELF"> T  </i>
 </incar>
 <primitive_cell>
  <structure name="primitive_cell" >
   <crystal>
    <varray name="basis" >
     <v>       9.28425000       0.00000000       0.00000000 </v>
     <v>       0.00000000      10.72053000       0.00000000 </v>
     <v>       0.00000000       0.00000000      19.49580000 </v>
    </varray>
    <i name="volume">   1940.45753799 </i>
    <varray name="rec_basis" >
     <v>       0.10770929       0.00000000       0.00000000 </v>
     <v>       0.00000000       0.09327897       0.00000000 </v>
     <v>       0.00000000       0.00000000       0.05129310 </v>
    </varray>
   </crystal>
   <varray name="positions" >
    <v>       0.00000000       0.00000000       0.00000000 </v>
    <v>       0.16666700       0.25000000       0.00000000 </v>
    <v>       0.00000000       0.00000000       0.38944500 </v>
    <v>       0.16666700       0.25000000       0.38944500 </v>
    <v>       0.00000000       0.16666600       0.13018000 </v>
    <v>       0.16666700       0.41666600       0.13018000 </v>
    <v>       0.00000000       0.33333400       0.25985200 </v>
    <v>       0.16666700       0.08333300       0.25985200 </v>
    <v>       0.33333300       0.00000000       0.00000000 </v>
    <v>       0.50000000       0.25000000       0.00000000 </v>
    <v>       0.33333300       0.00000000       0.38944500 </v>
    <v>       0.50000000       0.25000000       0.38944500 </v>
    <v>       0.33333300       0.16666600       0.13018000 </v>
    <v>       0.50000000       0.41666600       0.13018000 </v>
    <v>       0.33333300       0.33333400       0.25985200 </v>
    <v>       0.50000000       0.08333300       0.25985200 </v>
    <v>       0.66666700       0.00000000       0.00000000 </v>
    <v>       0.83333300       0.25000000       0.00000000 </v>
    <v>       0.66666700       0.00000000       0.38944500 </v>
    <v>       0.83333300       0.25000000       0.38944500 </v>
    <v>       0.66666700       0.16666600       0.13018000 </v>
    <v>       0.83333300       0.41666600       0.13018000 </v>
    <v>       0.66666700       0.33333400       0.25985200 </v>
    <v>       0.83333300       0.08333400       0.25985200 </v>
    <v>       0.00000000       0.50000000       0.00000000 </v>
    <v>       0.16666700       0.75000000       0.00000000 </v>
    <v>       0.00000000       0.50000000       0.38944500 </v>
    <v>       0.16666700       0.75000000       0.38944500 </v>
    <v>       0.00000000       0.66666600       0.13018000 </v>
    <v>       0.16666700       0.91666600       0.13018000 </v>
    <v>       0.00000000       0.83333400       0.25985200 </v>
    <v>       0.16666700       0.58333400       0.25985200 </v>
    <v>       0.33333300       0.50000000       0.00000000 </v>
    <v>       0.50000000       0.75000000       0.00000000 </v>
    <v>       0.33333300       0.50000000       0.38944500 </v>
    <v>       0.50000000       0.75000000       0.38944500 </v>
    <v>       0.33333300       0.66666600       0.13018000 </v>
    <v>       0.50000000       0.91666700       0.13018000 </v>
    <v>       0.33333300       0.83333400       0.25985200 </v>
    <v>       0.50000000       0.58333400       0.25985200 </v>
    <v>       0.66666700       0.50000000       0.00000000 </v>
    <v>       0.83333300       0.75000000       0.00000000 </v>
    <v>       0.66666700       0.50000000       0.38944500 </v>
    <v>       0.83333300       0.75000000       0.38944500 </v>
    <v>       0.66666700       0.66666600       0.13018000 </v>
    <v>       0.83333300       0.91666700       0.13018000 </v>
    <v>       0.66666700       0.83333400       0.25985200 </v>
    <v>       0.83333300       0.58333400       0.25985200 </v>
    <v>       0.17052245       0.73465524       0.55027669 </v>
    <v>       0.00000000       0.00000000       0.09762400 </v>
    <v>       0.16666700       0.25000000       0.09762400 </v>
    <v>       0.97511793       0.98901429       0.48648783 </v>
    <v>       0.16260250       0.25484113       0.48613971 </v>
    <v>       0.00000000       0.16666600       0.22753200 </v>
    <v>       0.16666700       0.41666600       0.22753200 </v>
    <v>       0.00000000       0.33333400       0.35720700 </v>
    <v>       0.16666700       0.08333300       0.35720700 </v>
    <v>       0.33333300       0.00000000       0.09762400 </v>
    <v>       0.50000000       0.25000000       0.09762400 </v>
    <v>       0.35435983       0.99192883       0.48616795 </v>
    <v>       0.49111730       0.25150766       0.48687946 </v>
    <v>       0.33333300       0.16666600       0.22753200 </v>
    <v>       0.50000000       0.41666600       0.22753200 </v>
    <v>       0.33333300       0.33333400       0.35720700 </v>
    <v>       0.50000000       0.08333300       0.35720700 </v>
    <v>       0.66666700       0.00000000       0.09762400 </v>
    <v>       0.83333300       0.25000000       0.09762400 </v>
    <v>       0.66818743       0.98573714       0.48641147 </v>
    <v>       0.84164505       0.25722048       0.48691708 </v>
    <v>       0.66666700       0.16666600       0.22753200 </v>
    <v>       0.83333300       0.41666600       0.22753200 </v>
    <v>       0.66666700       0.33333400       0.35720700 </v>
    <v>       0.83333300       0.08333400       0.35720700 </v>
    <v>       0.00000000       0.50000000       0.09762400 </v>
    <v>       0.16666700       0.75000000       0.09762400 </v>
    <v>       0.99139481       0.47520039       0.48627740 </v>
    <v>       0.16476634       0.82715715       0.48214301 </v>
    <v>       0.00000000       0.66666600       0.22753200 </v>
    <v>       0.16666700       0.91666600       0.22753200 </v>
    <v>       0.00000000       0.83333400       0.35720700 </v>
    <v>       0.16666700       0.58333400       0.35720700 </v>
    <v>       0.33333300       0.50000000       0.09762400 </v>
    <v>       0.50000000       0.75000000       0.09762400 </v>
    <v>       0.33215624       0.46886243       0.48699765 </v>
    <v>       0.52308381       0.76549790       0.48678018 </v>
    <v>       0.33333300       0.66666600       0.22753200 </v>
    <v>       0.50000000       0.91666700       0.22753200 </v>
    <v>       0.33333300       0.83333400       0.35720700 </v>
    <v>       0.50000000       0.58333400       0.35720700 </v>
    <v>       0.66666700       0.50000000       0.09762400 </v>
    <v>       0.83333300       0.75000000       0.09762400 </v>
    <v>       0.68022716       0.50226767       0.48692617 </v>
    <v>       0.81239903       0.75787088       0.48609823 </v>
    <v>       0.66666700       0.66666600       0.22753200 </v>
    <v>       0.83333300       0.91666700       0.22753200 </v>
    <v>       0.66666700       0.83333400       0.35720700 </v>
    <v>       0.83333300       0.58333400       0.35720700 </v>
    <v>       0.36277300       0.64242376       0.63823878 </v>
   </varray>
  </structure>
  <varray name="primitive_index" >
   <v type="int" >        1 </v>
   <v type="int" >        2 </v>
   <v type="int" >        3 </v>
   <v type="int" >        4 </v>
   <v type="int" >        5 </v>
   <v type="int" >        6 </v>
   <v type="int" >        7 </v>
   <v type="int" >        8 </v>
   <v type="int" >        9 </v>
   <v type="int" >       10 </v>
   <v type="int" >       11 </v>
   <v type="int" >       12 </v>
   <v type="int" >       13 </v>
   <v type="int" >       14 </v>
   <v type="int" >       15 </v>
   <v type="int" >       16 </v>
   <v type="int" >       17 </v>
   <v type="int" >       18 </v>
   <v type="int" >       19 </v>
   <v type="int" >       20 </v>
   <v type="int" >       21 </v>
   <v type="int" >       22 </v>
   <v type="int" >       23 </v>
   <v type="int" >       24 </v>
   <v type="int" >       25 </v>
   <v type="int" >       26 </v>
   <v type="int" >       27 </v>
   <v type="int" >       28 </v>
   <v type="int" >       29 </v>
   <v type="int" >       30 </v>
   <v type="int" >       31 </v>
   <v type="int" >       32 </v>
   <v type="int" >       33 </v>
   <v type="int" >       34 </v>
   <v type="int" >       35 </v>
   <v type="int" >       36 </v>
   <v type="int" >       37 </v>
   <v type="int" >       38 </v>
   <v type="int" >       39 </v>
   <v type="int" >       40 </v>
   <v type="int" >       41 </v>
   <v type="int" >       42 </v>
   <v type="int" >       43 </v>
   <v type="int" >       44 </v>
   <v type="int" >       45 </v>
   <v type="int" >       46 </v>
   <v type="int" >       47 </v>
   <v type="int" >       48 </v>
   <v type="int" >       49 </v>
   <v type="int" >       50 </v>
   <v type="int" >       51 </v>
   <v type="int" >       52 </v>
   <v type="int" >       53 </v>
   <v type="int" >       54 </v>
   <v type="int" >       55 </v>
   <v type="int" >       56 </v>
   <v type="int" >       57 </v>
   <v type="int" >       58 </v>
   <v type="int" >       59 </v>
   <v type="int" >       60 </v>
   <v type="int" >       61 </v>
   <v type="int" >       62 </v>
   <v type="int" >       63 </v>
   <v type="int" >       64 </v>
   <v type="int" >       65 </v>
   <v type="int" >       66 </v>
   <v type="int" >       67 </v>
   <v type="int" >       68 </v>
   <v type="int" >       69 </v>
   <v type="int" >       70 </v>
   <v type="int" >       71 </v>
   <v type="int" >       72 </v>
   <v type="int" >       73 </v>
   <v type="int" >       74 </v>
   <v type="int" >       75 </v>
   <v type="int" >       76 </v>
   <v type="int" >       77 </v>
   <v type="int" >       78 </v>
   <v type="int" >       79 </v>
   <v type="int" >       80 </v>
   <v type="int" >       81 </v>
   <v type="int" >       82 </v>
   <v type="int" >       83 </v>
   <v type="int" >       84 </v>
   <v type="int" >       85 </v>
   <v type="int" >       86 </v>
   <v type="int" >       87 </v>
   <v type="int" >       88 </v>
   <v type="int" >       89 </v>
   <v type="int" >       90 </v>
   <v type="int" >       91 </v>
   <v type="int" >       92 </v>
   <v type="int" >       93 </v>
   <v type="int" >       94 </v>
   <v type="int" >       95 </v>
   <v type="int" >       96 </v>
   <v type="int" >       97 </v>
   <v type="int" >       98 </v>
  </varray>
 </primitive_cell>
 <kpoints>
  <generation param="Gamma">
   <v type="int" name="divisions">       4        3        1 </v>
   <v name="usershift">      0.00000000       0.00000000       0.00000000 </v>
   <v name="genvec1">      0.25000000       0.00000000       0.00000000 </v>
   <v name="genvec2">      0.00000000       0.33333333       0.00000000 </v>
   <v name="genvec3">      0.00000000       0.00000000       1.00000000 </v>
   <v name="shift">      0.00000000       0.00000000       0.00000000 </v>
  </generation>
  <varray name="kpointlist" >
   <v>       0.00000000       0.00000000       0.00000000 </v>
   <v>       0.25000000       0.00000000       0.00000000 </v>
   <v>       0.50000000       0.00000000       0.00000000 </v>
   <v>       0.00000000       0.33333333       0.00000000 </v>
   <v>       0.25000000       0.33333333       0.00000000 </v>
   <v>       0.25000000      -0.33333333       0.00000000 </v>
   <v>       0.50000000       0.33333333       0.00000000 </v>
  </varray>
  <varray name="weights" >
   <v>       0.08333333 </v>
   <v>       0.16666667 </v>
   <v>       0.08333333 </v>
   <v>       0.16666667 </v>
   <v>       0.16666667 </v>
   <v>       0.16666667 </v>
   <v>       0.16666667 </v>
  </varray>
  <varray name="tetrahedronlist"  type="int" >
   <v type="int" >        2        3        6        6        7 </v>
   <v type="int" >        2        2        3        6        6 </v>
   <v type="int" >        2        2        2        3        6 </v>
   <v type="int" >        2        3        6        7        7 </v>
   <v type="int" >        2        3        3        6        7 </v>
   <v type="int" >        2        2        3        3        6 </v>
   <v type="int" >        2        5        6        7        7 </v>
   <v type="int" >        4        5        7        7        7 </v>
   <v type="int" >        2        5        6        6        7 </v>
   <v type="int" >        2        5        5        6        7 </v>
   <v type="int" >        2        5        5        7        7 </v>
   <v type="int" >        2        1        2        2        4 </v>
   <v type="int" >        2        2        2        4        6 </v>
   <v type="int" >        2        2        4        6        6 </v>
   <v type="int" >        2        1        1        2        4 </v>
   <v type="int" >        2        1        2        4        4 </v>
   <v type="int" >        2        2        4        4        6 </v>
   <v type="int" >        2        1        4        5        5 </v>
   <v type="int" >        2        1        2        5        5 </v>
   <v type="int" >        2        1        2        2        5 </v>
   <v type="int" >        2        1        4        4        5 </v>
   <v type="int" >        2        1        1        4        5 </v>
   <v type="int" >        2        1        1        2        5 </v>
   <v type="int" >        2        4        4        5        6 </v>
   <v type="int" >        4        4        4        4        6 </v>
   <v type="int" >        2        4        5        5        6 </v>
   <v type="int" >        2        4        5        6        6 </v>
   <v type="int" >        2        4        4        6        6 </v>
   <v type="int" >        2        2        2        3        7 </v>
   <v type="int" >        2        2        2        5        7 </v>
   <v type="int" >        2        2        5        5        7 </v>
   <v type="int" >        2        2        3        3        7 </v>
   <v type="int" >        2        2        3        7        7 </v>
   <v type="int" >        2        2        5        7        7 </v>
  </varray>
  <i name="volumeweight">      0.01388889 </i>
 </kpoints>
 <parameters>
  <separator name="general" >
   <i type="string" name="SYSTEM">ni3al</i>
   <i type="logical" name="LCOMPAT"> F  </i>
  </separator>
  <separator name="electronic" >
   <i type="string" name="PREC">accura</i>
   <i name="ENMAX">    530.00000000</i>
   <i name="ENAUG">    644.87300000</i>
   <i name="EDIFF">      0.00000100</i>
   <i type="int" name="IALGO">    68</i>
   <i type="int" name="IWAVPR">    10</i>
   <i type="int" name="NBANDS">   252</i>
   <i type="int" name="NBANDSLOW">    -1</i>
   <i type="int" name="NBANDSHIGH">    -1</i>
   <i name="NELECT">    400.00000000</i>
   <i type="int" name="TURBO">     0</i>
   <i type="int" name="IRESTART">     0</i>
   <i type="int" name="NREBOOT">     0</i>
   <i type="int" name="NMIN">     0</i>
   <i name="EREF">      0.00000000</i>
   <separator name="electronic smearing" >
    <i type="int" name="ISMEAR">    -5</i>
    <i name="SIGMA">      0.10000000</i>
    <i name="KSPACING">      0.50000000</i>
    <i type="logical" name="KGAMMA"> T  </i>
    <i type="logical" name="KBLOWUP"> T  </i>
   </separator>
   <separator name="electronic projectors" >
    <i type="logical" name="LREAL"> T  </i>
    <v name="ROPT">     -0.00025000     -0.00025000     -0.00025000     -0.00025000</v>
    <i type="int" name="LMAXPAW">  -100</i>
    <i type="int" name="LMAXMIX">     4</i>
    <i type="logical" name="NLSPLINE"> F  </i>
   </separator>
   <separator name="electronic startup" >
    <i type="int" name="ISTART">     0</i>
    <i type="int" name="ICHARG">     2</i>
    <i type="int" name="INIWAV">     1</i>
   </separator>
   <separator name="electronic spin" >
    <i type="int" name="ISPIN">     1</i>
    <i type="logical" name="LNONCOLLINEAR"> F  </i>
    <v name="MAGMOM">      1.00000000      1.00000000      1.00000000      1.00000000      1.00000000      1.00000000      1.00000000      1.00000000      1.00000000      1.00000000      1.00000000      1.00000000      1.00000000      1.00000000      1.00000000      1.00000000      1.00000000      1.00000000      1.00000000      1.00000000
      1.00000000      1.00000000      1.00000000      1.00000000      1.00000000      1.00000000      1.00000000      1.00000000      1.00000000      1.00000000      1.00000000      1.00000000      1.00000000      1.00000000      1.00000000      1.00000000      1.00000000      1.00000000      1.00000000      1.00000000
      1.00000000      1.00000000      1.00000000      1.00000000      1.00000000      1.00000000      1.00000000      1.00000000      1.00000000      1.00000000      1.00000000      1.00000000      1.00000000      1.00000000      1.00000000      1.00000000      1.00000000      1.00000000      1.00000000      1.00000000
      1.00000000      1.00000000      1.00000000      1.00000000      1.00000000      1.00000000      1.00000000      1.00000000      1.00000000      1.00000000      1.00000000      1.00000000      1.00000000      1.00000000      1.00000000      1.00000000      1.00000000      1.00000000      1.00000000      1.00000000
      1.00000000      1.00000000      1.00000000      1.00000000      1.00000000      1.00000000      1.00000000      1.00000000      1.00000000      1.00000000      1.00000000      1.00000000      1.00000000      1.00000000      1.00000000      1.00000000      1.00000000      1.00000000</v>
    <i name="NUPDOWN">     -1.00000000</i>
    <i type="logical" name="LSORBIT"> F  </i>
    <v name="SAXIS">      0.00000000      0.00000000      1.00000000</v>
    <i type="logical" name="LSPIRAL"> F  </i>
    <v name="QSPIRAL">      0.00000000      0.00000000      0.00000000</v>
    <i type="logical" name="LZEROZ"> F  </i>
   </separator>
   <separator name="electronic exchange-correlation" >
    <i type="logical" name="LASPH"> F  </i>
    <i type="logical" name="LMETAGGA"> F  </i>
   </separator>
   <separator name="electronic convergence" >
    <i type="int" name="NELM">   150</i>
    <i type="int" name="NELMDL">    -5</i>
    <i type="int" name="NELMIN">     2</i>
    <i name="ENINI">    530.00000000</i>
    <separator name="electronic convergence detail" >
     <i type="logical" name="LDIAG"> T  </i>
     <i type="logical" name="LSUBROT"> F  </i>
     <i name="WEIMIN">      0.00000000</i>
     <i name="EBREAK">      0.00000000</i>
     <i name="DEPER">      0.30000000</i>
     <i type="int" name="NRMM">     4</i>
     <i name="TIME">      0.40000000</i>
    </separator>
   </separator>
   <separator name="electronic mixer" >
    <i name="AMIX">      0.40000000</i>
    <i name="BMIX">      1.00000000</i>
    <i name="AMIN">      0.01000000</i>
    <i name="AMIX_MAG">      1.60000000</i>
    <i name="BMIX_MAG">      1.00000000</i>
    <separator name="electronic mixer details" >
     <i type="int" name="IMIX">     4</i>
     <i type="logical" name="MIXFIRST"> F  </i>
     <i type="int" name="MAXMIX">   -45</i>
     <i name="WC">    100.00000000</i>
     <i type="int" name="INIMIX">     1</i>
     <i type="int" name="MIXPRE">     1</i>
     <i type="int" name="MREMOVE">     5</i>
    </separator>
   </separator>
   <separator name="electronic dipolcorrection" >
    <i type="logical" name="LDIPOL"> F  </i>
    <i type="logical" name="LMONO"> F  </i>
    <i type="int" name="IDIPOL">     0</i>
    <i name="EPSILON">      1.00000000</i>
    <v name="DIPOL">   -100.00000000   -100.00000000   -100.00000000</v>
    <i name="EFIELD">      0.00000000</i>
   </separator>
  </separator>
  <separator name="grids" >
   <i type="int" name="NGX">    70</i>
   <i type="int" name="NGY">    80</i>
   <i type="int" name="NGZ">   150</i>
   <i type="int" name="NGXF">   140</i>
   <i type="int" name="NGYF">   160</i>
   <i type="int" name="NGZF">   300</i>
   <i type="logical" name="ADDGRID"> F  </i>
  </separator>
  <separator name="ionic" >
   <i type="int" name="NSW">     0</i>
   <i type="int" name="IBRION">    -1</i>
   <i type="int" name="MDALGO">     0</i>
   <i type="int" name="ISIF">     2</i>
   <i name="PSTRESS">      0.00000000</i>
   <i name="EDIFFG">     -0.01000000</i>
   <i type="int" name="NFREE">     0</i>
   <i name="POTIM">      0.50000000</i>
   <i name="SMASS">     -3.00000000</i>
   <i name="SCALEE">      1.00000000</i>
  </separator>
  <separator name="ionic md" >
   <i name="TEBEG">      0.00010000</i>
   <i name="TEEND">      0.00010000</i>
   <i type="int" name="NBLOCK">     1</i>
   <i type="int" name="KBLOCK">     1</i>
   <i type="int" name="NPACO">   256</i>
   <i name="APACO">     10.00000000</i>
  </separator>
  <separator name="symmetry" >
   <i type="int" name="ISYM">     2</i>
   <i name="SYMPREC">      0.00001000</i>
  </separator>
  <separator name="dos" >
   <i type="int" name="LORBIT">     0</i>
   <v name="RWIGS">     -1.00000000     -1.00000000     -1.00000000     -1.00000000</v>
   <i type="int" name="NEDOS">   301</i>
   <i name="EMIN">     10.00000000</i>
   <i name="EMAX">    -10.00000000</i>
   <i name="EFERMI">      0.00000000</i>
  </separator>
  <separator name="writing" >
   <i type="int" name="NWRITE">     2</i>
   <i type="logical" name="LWAVE"> F  </i>
   <i type="logical" name="LDOWNSAMPLE"> F  </i>
   <i type="logical" name="LCHARG"> F  </i>
   <i type="logical" name="LPARD"> F  </i>
   <i type="logical" name="LVTOT"> F  </i>
   <i type="logical" name="LVHAR"> F  </i>
   <i type="logical" name="LELF"> T  </i>
   <i type="logical" name="LOPTICS"> F  </i>
   <v name="STM">      0.00000000      0.00000000      0.00000000      0.00000000      0.00000000      0.00000000      0.00000000</v>
  </separator>
  <separator name="performance" >
   <i type="int" name="NPAR">     4</i>
   <i type="int" name="NSIM">     4</i>
   <i type="int" name="NBLK">    -1</i>
   <i type="logical" name="LPLANE"> T  </i>
   <i type="logical" name="LSCALAPACK"> T  </i>
   <i type="logical" name="LSCAAWARE"> F  </i>
   <i type="logical" name="LSCALU"> F  </i>
   <i type="logical" name="LASYNC"> F  </i>
   <i type="logical" name="LORBITALREAL"> F  </i>
  </separator>
  <separator name="miscellaneous" >
   <i type="int" name="IDIOT">     3</i>
   <i type="int" name="PHON_NSTRUCT">    -1</i>
   <i type="logical" name="LMUSIC"> F  </i>
   <v name="POMASS">     12.01100000     18.99800000     28.08500000     39.09800000</v>
   <v name="DARWINR">      0.00000000      0.00000000      0.00000000      0.00000000</v>
   <v name="DARWINV">      1.00000000      1.00000000      1.00000000      1.00000000</v>
   <i type="logical" name="LCORR"> T  </i>
  </separator>
  <i type="logical" name="GGA_COMPAT"> T  </i>
  <i type="logical" name="LBERRY"> F  </i>
  <i type="int" name="ICORELEVEL">     0</i>
  <i type="logical" name="LDAU"> F  </i>
  <i type="int" name="I_CONSTRAINED_M">     0</i>
  <separator name="electronic exchange-correlation" >
   <i type="string" name="GGA">--</i>
   <i type="int" name="VOSKOWN">     0</i>
   <i type="logical" name="LHFCALC"> F  </i>
   <i type="string" name="PRECFOCK"></i>
   <i type="logical" name="LSYMGRAD"> F  </i>
   <i type="logical" name="LHFONE"> F  </i>
   <i type="logical" name="LRHFCALC"> F  </i>
   <i type="logical" name="LTHOMAS"> F  </i>
   <i type="logical" name="LMODELHF"> F  </i>
   <i type="logical" name="LFOCKACE"> F  </i>
   <i name="ENCUT4O">     -1.00000000</i>
   <i type="int" name="EXXOEP">     0</i>
   <i type="int" name="FOURORBIT">     0</i>
   <i name="AEXX">      0.00000000</i>
   <i name="HFALPHA">      0.00000000</i>
   <i name="MCALPHA">      0.00000000</i>
   <i name="ALDAX">      1.00000000</i>
   <i name="AGGAX">      1.00000000</i>
   <i name="ALDAC">      1.00000000</i>
   <i name="AGGAC">      1.00000000</i>
   <i type="int" name="NKREDX">     1</i>
   <i type="int" name="NKREDY">     1</i>
   <i type="int" name="NKREDZ">     1</i>
   <i type="logical" name="SHIFTRED"> F  </i>
   <i type="logical" name="ODDONLY"> F  </i>
   <i type="logical" name="EVENONLY"> F  </i>
   <i type="int" name="LMAXFOCK">     0</i>
   <i type="int" name="NMAXFOCKAE">     0</i>
   <i type="logical" name="LFOCKAEDFT"> F  </i>
   <i name="HFSCREEN">      0.00000000</i>
   <i name="HFSCREENC">      0.00000000</i>
   <i type="int" name="NBANDSGWLOW">     0</i>
  </separator>
  <separator name="vdW DFT" >
   <i type="logical" name="LUSE_VDW"> F  </i>
   <i name="Zab_VDW">     -0.84910000</i>
   <i name="PARAM1">      0.12340000</i>
   <i name="PARAM2">      1.00000000</i>
   <i name="PARAM3">      0.00000000</i>
  </separator>
  <separator name="model GW" >
   <i type="int" name="MODEL_GW">     0</i>
   <i name="MODEL_EPS0">     11.88035227</i>
   <i name="MODEL_ALPHA">      1.00000000</i>
  </separator>
  <separator name="linear response parameters" >
   <i type="logical" name="LEPSILON"> F  </i>
   <i type="logical" name="LRPA"> F  </i>
   <i type="logical" name="LNABLA"> F  </i>
   <i type="logical" name="LVEL"> F  </i>
   <i name="CSHIFT">      0.10000000</i>
   <i name="OMEGAMAX">     -1.00000000</i>
   <i name="DEG_THRESHOLD">      0.00200000</i>
   <i name="RTIME">     -0.10000000</i>
   <i name="WPLASMAI">      0.00000000</i>
   <v name="DFIELD">      0.00000000      0.00000000      0.00000000</v>
   <v name="WPLASMA">      0.00000000      0.00000000      0.00000000      0.00000000      0.00000000      0.00000000      0.00000000      0.00000000      0.00000000</v>
  </separator>
  <separator name="orbital magnetization" >
   <i type="logical" name="NUCIND"> F  </i>
   <v name="MAGPOS">      0.00000000      0.00000000      0.00000000</v>
   <i type="logical" name="LNICSALL"> T  </i>
   <i type="logical" name="ORBITALMAG"> F  </i>
   <i type="logical" name="LMAGBLOCH"> F  </i>
   <i type="logical" name="LCHIMAG"> F  </i>
   <i type="logical" name="LGAUGE"> T  </i>
   <i type="int" name="MAGATOM">     0</i>
   <v name="MAGDIPOL">      0.00000000      0.00000000      0.00000000</v>
   <v name="AVECCONST">      0.00000000      0.00000000      0.00000000</v>
  </separator>
  <separator name="response functions" >
   <i type="logical" name="LFINITE_TEMPERATURE"> F  </i>
   <i type="logical" name="LADDER"> F  </i>
   <i type="logical" name="LRPAFORCE"> F  </i>
   <i type="logical" name="LFXC"> F  </i>
   <i type="logical" name="LHARTREE"> T  </i>
   <i type="int" name="IBSE">     0</i>
   <v type="int" name="KPOINT">    -1     0     0     0</v>
   <i type="logical" name="LTCTC"> F  </i>
   <i type="logical" name="LTCTE"> F  </i>
   <i type="logical" name="LTETE"> F  </i>
   <i type="logical" name="LTRIPLET"> F  </i>
   <i type="logical" name="LFXCEPS"> F  </i>
   <i type="logical" name="LFXHEG"> F  </i>
   <i type="int" name="NATURALO">     2</i>
   <i type="logical" name="LHOLEGF"> F  </i>
   <i type="logical" name="L2ORDER"> F  </i>
   <i type="logical" name="LDMP1"> F  </i>
   <i type="logical" name="LMP2LT"> F  </i>
   <i type="logical" name="LSMP2LT"> F  </i>
   <i type="logical" name="LGWLF"> F  </i>
   <i name="ENCUTGW">     -2.00000000</i>
   <i name="ENCUTGWSOFT">     -2.00000000</i>
   <i name="ENCUTLF">     -1.00000000</i>
   <i type="logical" name="LESF_SPLINES"> F  </i>
   <i type="int" name="LMAXMP2">    -1</i>
   <i name="SCISSOR">      0.00000000</i>
   <i type="int" name="NOMEGA">     0</i>
   <i type="int" name="NOMEGAR">     0</i>
   <i type="int" name="NBANDSGW">    -1</i>
   <i type="int" name="NBANDSO">    -1</i>
   <i type="int" name="NBANDSV">    -1</i>
   <i type="int" name="NELMGW">     1</i>
   <i type="int" name="NELMHF">     1</i>
   <i type="int" name="DIM">     3</i>
   <i type="int" name="IESPILON">     4</i>
   <i type="int" name="ANTIRES">     0</i>
   <i name="OMEGAMAX">    -30.00000000</i>
   <i name="OMEGAMIN">    -30.00000000</i>
   <i name="OMEGATL">   -200.00000000</i>
   <i type="int" name="OMEGAGRID">     0</i>
   <i name="CSHIFT">     -0.10000000</i>
   <i type="logical" name="LSELFENERGY"> F  </i>
   <i type="logical" name="LSPECTRAL"> F  </i>
   <i type="logical" name="LSPECTRALGW"> F  </i>
   <i type="logical" name="LSINGLES"> F  </i>
   <i type="logical" name="LFERMIGW"> F  </i>
   <i type="logical" name="ODDONLYGW"> F  </i>
   <i type="logical" name="EVENONLYGW"> F  </i>
   <i type="int" name="NKREDLFX">     1</i>
   <i type="int" name="NKREDLFY">     1</i>
   <i type="int" name="NKREDLFZ">     1</i>
   <i type="int" name="MAXMEM">  2800</i>
   <i type="int" name="TELESCOPE">     0</i>
   <i type="int" name="NTAUPAR">    -1</i>
   <i type="int" name="NOMEGAPAR">    -1</i>
   <i name="DAMP_NEWTON">      0.80000001</i>
   <i name="LAMBDA">      1.00000000</i>
  </separator>
  <separator name="External order field" >
   <i name="OFIELD_KAPPA">      0.00000000</i>
   <v name="OFIELD_K">      0.00000000      0.00000000      0.00000000</v>
   <i name="OFIELD_Q6_NEAR">      0.00000000</i>
   <i name="OFIELD_Q6_FAR">      0.00000000</i>
   <i name="OFIELD_A">      0.00000000</i>
  </separator>
  <separator name="optional k-points parameters" >
   <i type="int" name="KPOINTS_OPT_MODE">     1</i>
   <i type="logical" name="LKPOINTS_OPT"> F  </i>
  </separator>
  <separator name="solvation model" >
   <i type="logical" name="LSOL"> F  </i>
  </separator>
 </parameters>
 <atominfo>
  <atoms>      98 </atoms>
  <types>       4 </types>
  <array name="atoms" >
   <dimension dim="1">ion</dimension>
   <field type="string">element</field>
   <field type="int">atomtype</field>
   <set>
    <rc><c>C </c><c>   1</c></rc>
    <rc><c>C </c><c>   1</c></rc>
    <rc><c>C </c><c>   1</c></rc>
    <rc><c>C </c><c>   1</c></rc>
    <rc><c>C </c><c>   1</c></rc>
    <rc><c>C </c><c>   1</c></rc>
    <rc><c>C </c><c>   1</c></rc>
    <rc><c>C </c><c>   1</c></rc>
    <rc><c>C </c><c>   1</c></rc>
    <rc><c>C </c><c>   1</c></rc>
    <rc><c>C </c><c>   1</c></rc>
    <rc><c>C </c><c>   1</c></rc>
    <rc><c>C </c><c>   1</c></rc>
    <rc><c>C </c><c>   1</c></rc>
    <rc><c>C </c><c>   1</c></rc>
    <rc><c>C </c><c>   1</c></rc>
    <rc><c>C </c><c>   1</c></rc>
    <rc><c>C </c><c>   1</c></rc>
    <rc><c>C </c><c>   1</c></rc>
    <rc><c>C </c><c>   1</c></rc>
    <rc><c>C </c><c>   1</c></rc>
    <rc><c>C </c><c>   1</c></rc>
    <rc><c>C </c><c>   1</c></rc>
    <rc><c>C </c><c>   1</c></rc>
    <rc><c>C </c><c>   1</c></rc>
    <rc><c>C </c><c>   1</c></rc>
    <rc><c>C </c><c>   1</c></rc>
    <rc><c>C </c><c>   1</c></rc>
    <rc><c>C </c><c>   1</c></rc>
    <rc><c>C </c><c>   1</c></rc>
    <rc><c>C </c><c>   1</c></rc>
    <rc><c>C </c><c>   1</c></rc>
    <rc><c>C </c><c>   1</c></rc>
    <rc><c>C </c><c>   1</c></rc>
    <rc><c>C </c><c>   1</c></rc>
    <rc><c>C </c><c>   1</c></rc>
    <rc><c>C </c><c>   1</c></rc>
    <rc><c>C </c><c>   1</c></rc>
    <rc><c>C </c><c>   1</c></rc>
    <rc><c>C </c><c>   1</c></rc>
    <rc><c>C </c><c>   1</c></rc>
    <rc><c>C </c><c>   1</c></rc>
    <rc><c>C </c><c>   1</c></rc>
    <rc><c>C </c><c>   1</c></rc>
    <rc><c>C </c><c>   1</c></rc>
    <rc><c>C </c><c>   1</c></rc>
    <rc><c>C </c><c>   1</c></rc>
    <rc><c>C </c><c>   1</c></rc>
    <rc><c>F </c><c>   2</c></rc>
    <rc><c>Si</c><c>   3</c></rc>
    <rc><c>Si</c><c>   3</c></rc>
    <rc><c>Si</c><c>   3</c></rc>
    <rc><c>Si</c><c>   3</c></rc>
    <rc><c>Si</c><c>   3</c></rc>
    <rc><c>Si</c><c>   3</c></rc>
    <rc><c>Si</c><c>   3</c></rc>
    <rc><c>Si</c><c>   3</c></rc>
    <rc><c>Si</c><c>   3</c></rc>
    <rc><c>Si</c><c>   3</c></rc>
    <rc><c>Si</c><c>   3</c></rc>
    <rc><c>Si</c><c>   3</c></rc>
    <rc><c>Si</c><c>   3</c></rc>
    <rc><c>Si</c><c>   3</c></rc>
    <rc><c>Si</c><c>   3</c></rc>
    <rc><c>Si</c><c>   3</c></rc>
    <rc><c>Si</c><c>   3</c></rc>
    <rc><c>Si</c><c>   3</c></rc>
    <rc><c>Si</c><c>   3</c></rc>
    <rc><c>Si</c><c>   3</c></rc>
    <rc><c>Si</c><c>   3</c></rc>
    <rc><c>Si</c><c>   3</c></rc>
    <rc><c>Si</c><c>   3</c></rc>
    <rc><c>Si</c><c>   3</c></rc>
    <rc><c>Si</c><c>   3</c></rc>
    <rc><c>Si</c><c>   3</c></rc>
    <rc><c>Si</c><c>   3</c></rc>
    <rc><c>Si</c><c>   3</c></rc>
    <rc><c>Si</c><c>   3</c></rc>
    <rc><c>Si</c><c>   3</c></rc>
    <rc><c>Si</c><c>   3</c></rc>
    <rc><c>Si</c><c>   3</c></rc>
    <rc><c>Si</c><c>   3</c></rc>
    <rc><c>Si</c><c>   3</c></rc>
    <rc><c>Si</c><c>   3</c></rc>
    <rc><c>Si</c><c>   3</c></rc>
    <rc><c>Si</c><c>   3</c></rc>
    <rc><c>Si</c><c>   3</c></rc>
    <rc><c>Si</c><c>   3</c></rc>
    <rc><c>Si</c><c>   3</c></rc>
    <rc><c>Si</c><c>   3</c></rc>
    <rc><c>Si</c><c>   3</c></rc>
    <rc><c>Si</c><c>   3</c></rc>
    <rc><c>Si</c><c>   3</c></rc>
    <rc><c>Si</c><c>   3</c></rc>
    <rc><c>Si</c><c>   3</c></rc>
    <rc><c>Si</c><c>   3</c></rc>
    <rc><c>Si</c><c>   3</c></rc>
    <rc><c>K </c><c>   4</c></rc>
   </set>
  </array>
  <array name="atomtypes" >
   <dimension dim="1">type</dimension>
   <field type="int">atomspertype</field>
   <field type="string">element</field>
   <field>mass</field>
   <field>valence</field>
   <field type="string">pseudopotential</field>
   <set>
    <rc><c>  48</c><c>C </c><c>     12.01100000</c><c>      4.00000000</c><c> PAW_PBE C 08Apr2002                    </c></rc>
    <rc><c>   1</c><c>F </c><c>     18.99800000</c><c>      7.00000000</c><c> PAW_PBE F 08Apr2002                    </c></rc>
    <rc><c>  48</c><c>Si</c><c>     28.08500000</c><c>      4.00000000</c><c> PAW_PBE Si 05Jan2001                   </c></rc>
    <rc><c>   1</c><c>K </c><c>     39.09800000</c><c>      9.00000000</c><c> PAW_PBE K_sv 06Sep2000                 </c></rc>
   </set>
  </array>
 </atominfo>
 <structure name="initialpos" >
  <crystal>
   <varray name="basis" >
    <v>       9.28425000       0.00000000       0.00000000 </v>
    <v>       0.00000000      10.72053000       0.00000000 </v>
    <v>       0.00000000       0.00000000      19.49580000 </v>
   </varray>
   <i name="volume">   1940.45753799 </i>
   <varray name="rec_basis" >
    <v>       0.10770929       0.00000000       0.00000000 </v>
    <v>       0.00000000       0.09327897       0.00000000 </v>
    <v>       0.00000000       0.00000000       0.05129310 </v>
   </varray>
  </crystal>
  <varray name="positions" >
   <v>       0.00000000       0.00000000       0.00000000 </v>
   <v>       0.16666700       0.25000000       0.00000000 </v>
   <v>       0.00000000       0.00000000       0.38944500 </v>
   <v>       0.16666700       0.25000000       0.38944500 </v>
   <v>       0.00000000       0.16666600       0.13018000 </v>
   <v>       0.16666700       0.41666600       0.13018000 </v>
   <v>       0.00000000       0.33333400       0.25985200 </v>
   <v>       0.16666700       0.08333300       0.25985200 </v>
   <v>       0.33333300       0.00000000       0.00000000 </v>
   <v>       0.50000000       0.25000000       0.00000000 </v>
   <v>       0.33333300       0.00000000       0.38944500 </v>
   <v>       0.50000000       0.25000000       0.38944500 </v>
   <v>       0.33333300       0.16666600       0.13018000 </v>
   <v>       0.50000000       0.41666600       0.13018000 </v>
   <v>       0.33333300       0.33333400       0.25985200 </v>
   <v>       0.50000000       0.08333300       0.25985200 </v>
   <v>       0.66666700       0.00000000       0.00000000 </v>
   <v>       0.83333300       0.25000000       0.00000000 </v>
   <v>       0.66666700       0.00000000       0.38944500 </v>
   <v>       0.83333300       0.25000000       0.38944500 </v>
   <v>       0.66666700       0.16666600       0.13018000 </v>
   <v>       0.83333300       0.41666600       0.13018000 </v>
   <v>       0.66666700       0.33333400       0.25985200 </v>
   <v>       0.83333300       0.08333400       0.25985200 </v>
   <v>       0.00000000       0.50000000       0.00000000 </v>
   <v>       0.16666700       0.75000000       0.00000000 </v>
   <v>       0.00000000       0.50000000       0.38944500 </v>
   <v>       0.16666700       0.75000000       0.38944500 </v>
   <v>       0.00000000       0.66666600       0.13018000 </v>
   <v>       0.16666700       0.91666600       0.13018000 </v>
   <v>       0.00000000       0.83333400       0.25985200 </v>
   <v>       0.16666700       0.58333400       0.25985200 </v>
   <v>       0.33333300       0.50000000       0.00000000 </v>
   <v>       0.50000000       0.75000000       0.00000000 </v>
   <v>       0.33333300       0.50000000       0.38944500 </v>
   <v>       0.50000000       0.75000000       0.38944500 </v>
   <v>       0.33333300       0.66666600       0.13018000 </v>
   <v>       0.50000000       0.91666700       0.13018000 </v>
   <v>       0.33333300       0.83333400       0.25985200 </v>
   <v>       0.50000000       0.58333400       0.25985200 </v>
   <v>       0.66666700       0.50000000       0.00000000 </v>
   <v>       0.83333300       0.75000000       0.00000000 </v>
   <v>       0.66666700       0.50000000       0.38944500 </v>
   <v>       0.83333300       0.75000000       0.38944500 </v>
   <v>       0.66666700       0.66666600       0.13018000 </v>
   <v>       0.83333300       0.91666700       0.13018000 </v>
   <v>       0.66666700       0.83333400       0.25985200 </v>
   <v>       0.83333300       0.58333400       0.25985200 </v>
   <v>       0.17052245       0.73465524       0.55027669 </v>
   <v>       0.00000000       0.00000000       0.09762400 </v>
   <v>       0.16666700       0.25000000       0.09762400 </v>
   <v>       0.97511793       0.98901429       0.48648783 </v>
   <v>       0.16260250       0.25484113       0.48613971 </v>
   <v>       0.00000000       0.16666600       0.22753200 </v>
   <v>       0.16666700       0.41666600       0.22753200 </v>
   <v>       0.00000000       0.33333400       0.35720700 </v>
   <v>       0.16666700       0.08333300       0.35720700 </v>
   <v>       0.33333300       0.00000000       0.09762400 </v>
   <v>       0.50000000       0.25000000       0.09762400 </v>
   <v>       0.35435983       0.99192883       0.48616795 </v>
   <v>       0.49111730       0.25150766       0.48687946 </v>
   <v>       0.33333300       0.16666600       0.22753200 </v>
   <v>       0.50000000       0.41666600       0.22753200 </v>
   <v>       0.33333300       0.33333400       0.35720700 </v>
   <v>       0.50000000       0.08333300       0.35720700 </v>
   <v>       0.66666700       0.00000000       0.09762400 </v>
   <v>       0.83333300       0.25000000       0.09762400 </v>
   <v>       0.66818743       0.98573714       0.48641147 </v>
   <v>       0.84164505       0.25722048       0.48691708 </v>
   <v>       0.66666700       0.16666600       0.22753200 </v>
   <v>       0.83333300       0.41666600       0.22753200 </v>
   <v>       0.66666700       0.33333400       0.35720700 </v>
   <v>       0.83333300       0.08333400       0.35720700 </v>
   <v>       0.00000000       0.50000000       0.09762400 </v>
   <v>       0.16666700       0.75000000       0.09762400 </v>
   <v>       0.99139481       0.47520039       0.48627740 </v>
   <v>       0.16476634       0.82715715       0.48214301 </v>
   <v>       0.00000000       0.66666600       0.22753200 </v>
   <v>       0.16666700       0.91666600       0.22753200 </v>
   <v>       0.00000000       0.83333400       0.35720700 </v>
   <v>       0.16666700       0.58333400       0.35720700 </v>
   <v>       0.33333300       0.50000000       0.09762400 </v>
   <v>       0.50000000       0.75000000       0.09762400 </v>
   <v>       0.33215624       0.46886243       0.48699765 </v>
   <v>       0.52308381       0.76549790       0.48678018 </v>
   <v>       0.33333300       0.66666600       0.22753200 </v>
   <v>       0.50000000       0.91666700       0.22753200 </v>
   <v>       0.33333300       0.83333400       0.35720700 </v>
   <v>       0.50000000       0.58333400       0.35720700 </v>
   <v>       0.66666700       0.50000000       0.09762400 </v>
   <v>       0.83333300       0.75000000       0.09762400 </v>
   <v>       0.68022716       0.50226767       0.48692617 </v>
   <v>       0.81239903       0.75787088       0.48609823 </v>
   <v>       0.66666700       0.66666600       0.22753200 </v>
   <v>       0.83333300       0.91666700       0.22753200 </v>
   <v>       0.66666700       0.83333400       0.35720700 </v>
   <v>       0.83333300       0.58333400       0.35720700 </v>
   <v>       0.36277300       0.64242376       0.63823878 </v>
  </varray>
  <varray name="selective"  type="logical" >
   <v type="logical" >  F  F  F </v>
   <v type="logical" >  F  F  F </v>
   <v type="logical" >  F  F  F </v>
   <v type="logical" >  F  F  F </v>
   <v type="logical" >  F  F  F </v>
   <v type="logical" >  F  F  F </v>
   <v type="logical" >  F  F  F </v>
   <v type="logical" >  F  F  F </v>
   <v type="logical" >  F  F  F </v>
   <v type="logical" >  F  F  F </v>
   <v type="logical" >  F  F  F </v>
   <v type="logical" >  F  F  F </v>
   <v type="logical" >  F  F  F </v>
   <v type="logical" >  F  F  F </v>
   <v type="logical" >  F  F  F </v>
   <v type="logical" >  F  F  F </v>
   <v type="logical" >  F  F  F </v>
   <v type="logical" >  F  F  F </v>
   <v type="logical" >  F  F  F </v>
   <v type="logical" >  F  F  F </v>
   <v type="logical" >  F  F  F </v>
   <v type="logical" >  F  F  F </v>
   <v type="logical" >  F  F  F </v>
   <v type="logical" >  F  F  F </v>
   <v type="logical" >  F  F  F </v>
   <v type="logical" >  F  F  F </v>
   <v type="logical" >  F  F  F </v>
   <v type="logical" >  F  F  F </v>
   <v type="logical" >  F  F  F </v>
   <v type="logical" >  F  F  F </v>
   <v type="logical" >  F  F  F </v>
   <v type="logical" >  F  F  F </v>
   <v type="logical" >  F  F  F </v>
   <v type="logical" >  F  F  F </v>
   <v type="logical" >  F  F  F </v>
   <v type="logical" >  F  F  F </v>
   <v type="logical" >  F  F  F </v>
   <v type="logical" >  F  F  F </v>
   <v type="logical" >  F  F  F </v>
   <v type="logical" >  F  F  F </v>
   <v type="logical" >  F  F  F </v>
   <v type="logical" >  F  F  F </v>
   <v type="logical" >  F  F  F </v>
   <v type="logical" >  F  F  F </v>
   <v type="logical" >  F  F  F </v>
   <v type="logical" >  F  F  F </v>
   <v type="logical" >  F  F  F </v>
   <v type="logical" >  F  F  F </v>
   <v type="logical" >  T  T  T </v>
   <v type="logical" >  F  F  F </v>
   <v type="logical" >  F  F  F </v>
   <v type="logical" >  T  T  T </v>
   <v type="logical" >  T  T  T </v>
   <v type="logical" >  F  F  F </v>
   <v type="logical" >  F  F  F </v>
   <v type="logical" >  F  F  F </v>
   <v type="logical" >  F  F  F </v>
   <v type="logical" >  F  F  F </v>
   <v type="logical" >  F  F  F </v>
   <v type="logical" >  T  T  T </v>
   <v type="logical" >  T  T  T </v>
   <v type="logical" >  F  F  F </v>
   <v type="logical" >  F  F  F </v>
   <v type="logical" >  F  F  F </v>
   <v type="logical" >  F  F  F </v>
   <v type="logical" >  F  F  F </v>
   <v type="logical" >  F  F  F </v>
   <v type="logical" >  T  T  T </v>
   <v type="logical" >  T  T  T </v>
   <v type="logical" >  F  F  F </v>
   <v type="logical" >  F  F  F </v>
   <v type="logical" >  F  F  F </v>
   <v type="logical" >  F  F  F </v>
   <v type="logical" >  F  F  F </v>
   <v type="logical" >  F  F  F </v>
   <v type="logical" >  T  T  T </v>
   <v type="logical" >  T  T  T </v>
   <v type="logical" >  F  F  F </v>
   <v type="logical" >  F  F  F </v>
   <v type="logical" >  F  F  F </v>
   <v type="logical" >  F  F  F </v>
   <v type="logical" >  F  F  F </v>
   <v type="logical" >  F  F  F </v>
   <v type="logical" >  T  T  T </v>
   <v type="logical" >  T  T  T </v>
   <v type="logical" >  F  F  F </v>
   <v type="logical" >  F  F  F </v>
   <v type="logical" >  F  F  F </v>
   <v type="logical" >  F  F  F </v>
   <v type="logical" >  F  F  F </v>
   <v type="logical" >  F  F  F </v>
   <v type="logical" >  T  T  T </v>
   <v type="logical" >  T  T  T </v>
   <v type="logical" >  F  F  F </v>
   <v type="logical" >  F  F  F </v>
   <v type="logical" >  F  F  F </v>
   <v type="logical" >  F  F  F </v>
   <v type="logical" >  T  T  T </v>
  </varray>
  <nose>
   <v>      -3.00000000       0.00000000       0.00010000       0.00010000 </v>
  </nose>
 </structure>
 <calculation>
  <scstep>
   <time name="dav">   57.14    8.20</time>
   <time name="total">   60.95    8.77</time>
   <energy>
    <i name="alphaZ">    318.41319391 </i>
    <i name="ewald">  30862.42824000 </i>
    <i name="hartreedc"> -43920.85597455 </i>
    <i name="XCdc">    283.03995574 </i>
    <i name="pawpsdc">   4337.97084573 </i>
    <i name="pawaedc">  -3548.78544197 </i>
    <i name="eentropy">      0.00000000 </i>
    <i name="bandstr">    357.51096823 </i>
    <i name="atom">  13444.54662946 </i>
    <i name="e_fr_energy">   2134.26841656 </i>
    <i name="e_wo_entrp">   2134.26841656 </i>
    <i name="e_0_energy">   2134.26841656 </i>
   </energy>
  </scstep>
  <scstep>
   <time name="dav">   68.01    9.75</time>
   <time name="total">   68.14    9.77</time>
   <energy>
    <i name="e_fr_energy">   -392.62886219 </i>
    <i name="e_wo_entrp">   -392.62886219 </i>
    <i name="e_0_energy">   -392.62886219 </i>
   </energy>
  </scstep>
  <scstep>
   <time name="dav">   69.15    9.92</time>
   <time name="total">   69.28    9.94</time>
   <energy>
    <i name="e_fr_energy">   -704.74249539 </i>
    <i name="e_wo_entrp">   -704.74249539 </i>
    <i name="e_0_energy">   -704.74249539 </i>
   </energy>
  </scstep>
  <scstep>
   <time name="dav">   72.42   10.38</time>
   <time name="total">   72.54   10.40</time>
   <energy>
    <i name="e_fr_energy">   -723.01479290 </i>
    <i name="e_wo_entrp">   -723.01479290 </i>
    <i name="e_0_energy">   -723.01479290 </i>
   </energy>
  </scstep>
  <scstep>
   <time name="dav">   72.97   10.46</time>
   <time name="total">   74.71   10.80</time>
   <energy>
    <i name="e_fr_energy">   -723.75951723 </i>
    <i name="e_wo_entrp">   -723.75951723 </i>
    <i name="e_0_energy">   -723.75951723 </i>
   </energy>
  </scstep>
  <scstep>
   <time name="diag">    7.69    1.10</time>
   <time name="diis">    6.46    2.86</time>
   <time name="orth">    0.83    0.42</time>
   <time name="total">   19.64    5.24</time>
   <energy>
    <i name="e_fr_energy">   -646.24387280 </i>
    <i name="e_wo_entrp">   -646.24387280 </i>
    <i name="e_0_energy">   -646.24387280 </i>
   </energy>
  </scstep>
  <scstep>
   <time name="diag">    7.69    1.10</time>
   <time name="diis">    6.79    3.10</time>
   <time name="orth">    0.84    0.42</time>
   <time name="total">   20.00    5.49</time>
   <energy>
    <i name="e_fr_energy">   -647.75366422 </i>
    <i name="e_wo_entrp">   -647.75366422 </i>
    <i name="e_0_energy">   -647.75366422 </i>
   </energy>
  </scstep>
  <scstep>
   <time name="diag">    7.67    1.10</time>
   <time name="diis">    6.86    3.05</time>
   <time name="orth">    0.83    0.42</time>
   <time name="total">   20.03    5.43</time>
   <energy>
    <i name="e_fr_energy">   -646.55380770 </i>
    <i name="e_wo_entrp">   -646.55380770 </i>
    <i name="e_0_energy">   -646.55380770 </i>
   </energy>
  </scstep>
  <scstep>
   <time name="diag">    7.84    1.12</time>
   <time name="diis">    6.65    2.96</time>
   <time name="orth">    0.83    0.42</time>
   <time name="total">   20.00    5.36</time>
   <energy>
    <i name="e_fr_energy">   -646.27343333 </i>
    <i name="e_wo_entrp">   -646.27343333 </i>
    <i name="e_0_energy">   -646.27343333 </i>
   </energy>
  </scstep>
  <scstep>
   <time name="diag">    7.70    1.11</time>
   <time name="diis">    7.15    3.21</time>
   <time name="orth">    0.83    0.42</time>
   <time name="total">   20.36    5.60</time>
   <energy>
    <i name="e_fr_energy">   -645.85871142 </i>
    <i name="e_wo_entrp">   -645.85871142 </i>
    <i name="e_0_energy">   -645.85871142 </i>
   </energy>
  </scstep>
  <scstep>
   <time name="diag">    7.68    1.10</time>
   <time name="diis">    7.66    3.47</time>
   <time name="orth">    0.82    0.42</time>
   <time name="total">   20.86    5.85</time>
   <energy>
    <i name="e_fr_energy">   -645.58503344 </i>
    <i name="e_wo_entrp">   -645.58503344 </i>
    <i name="e_0_energy">   -645.58503344 </i>
   </energy>
  </scstep>
  <scstep>
   <time name="diag">    7.67    1.10</time>
   <time name="diis">    7.06    3.14</time>
   <time name="orth">    0.82    0.41</time>
   <time name="total">   20.20    5.50</time>
   <energy>
    <i name="e_fr_energy">   -645.50441953 </i>
    <i name="e_wo_entrp">   -645.50441953 </i>
    <i name="e_0_energy">   -645.50441953 </i>
   </energy>
  </scstep>
  <scstep>
   <time name="diag">    7.61    1.09</time>
   <time name="diis">    8.10    3.65</time>
   <time name="orth">    0.82    0.41</time>
   <time name="total">   21.19    6.01</time>
   <energy>
    <i name="e_fr_energy">   -645.50401527 </i>
    <i name="e_wo_entrp">   -645.50401527 </i>
    <i name="e_0_energy">   -645.50401527 </i>
   </energy>
  </scstep>
  <scstep>
   <time name="diag">    7.77    1.11</time>
   <time name="diis">    6.85    3.11</time>
   <time name="orth">    0.82    0.42</time>
   <time name="total">   20.13    5.50</time>
   <energy>
    <i name="e_fr_energy">   -645.43955121 </i>
    <i name="e_wo_entrp">   -645.43955121 </i>
    <i name="e_0_energy">   -645.43955121 </i>
   </energy>
  </scstep>
  <scstep>
   <time name="diag">    7.72    1.11</time>
   <time name="diis">    7.83    3.56</time>
   <time name="orth">    0.83    0.42</time>
   <time name="total">   21.03    5.94</time>
   <energy>
    <i name="e_fr_energy">   -645.42019797 </i>
    <i name="e_wo_entrp">   -645.42019797 </i>
    <i name="e_0_energy">   -645.42019797 </i>
   </energy>
  </scstep>
  <scstep>
   <time name="diag">    7.71    1.10</time>
   <time name="diis">    8.40    3.84</time>
   <time name="orth">    0.83    0.42</time>
   <time name="total">   21.58    6.22</time>
   <energy>
    <i name="e_fr_energy">   -645.40250465 </i>
    <i name="e_wo_entrp">   -645.40250465 </i>
    <i name="e_0_energy">   -645.40250465 </i>
   </energy>
  </scstep>
  <scstep>
   <time name="diag">    7.66    1.10</time>
   <time name="diis">    9.08    4.19</time>
   <time name="orth">    0.83    0.42</time>
   <time name="total">   22.31    6.57</time>
   <energy>
    <i name="e_fr_energy">   -645.40180784 </i>
    <i name="e_wo_entrp">   -645.40180784 </i>
    <i name="e_0_energy">   -645.40180784 </i>
   </energy>
  </scstep>
  <scstep>
   <time name="diag">    7.65    1.10</time>
   <time name="diis">    9.47    4.36</time>
   <time name="orth">    0.84    0.42</time>
   <time name="total">   22.65    6.73</time>
   <energy>
    <i name="e_fr_energy">   -645.40346678 </i>
    <i name="e_wo_entrp">   -645.40346678 </i>
    <i name="e_0_energy">   -645.40346678 </i>
   </energy>
  </scstep>
  <scstep>
   <time name="diag">    7.64    1.09</time>
   <time name="diis">    9.44    4.34</time>
   <time name="orth">    0.84    0.42</time>
   <time name="total">   22.59    6.71</time>
   <energy>
    <i name="e_fr_energy">   -645.40463337 </i>
    <i name="e_wo_entrp">   -645.40463337 </i>
    <i name="e_0_energy">   -645.40463337 </i>
   </energy>
  </scstep>
  <scstep>
   <time name="diag">    7.63    1.09</time>
   <time name="diis">    9.00    4.17</time>
   <time name="orth">    0.84    0.42</time>
   <time name="total">   22.20    6.55</time>
   <energy>
    <i name="e_fr_energy">   -645.40702793 </i>
    <i name="e_wo_entrp">   -645.40702793 </i>
    <i name="e_0_energy">   -645.40702793 </i>
   </energy>
  </scstep>
  <scstep>
   <time name="diag">    7.65    1.10</time>
   <time name="diis">    9.92    4.58</time>
   <time name="orth">    0.84    0.42</time>
   <time name="total">   23.12    6.96</time>
   <energy>
    <i name="e_fr_energy">   -645.41052779 </i>
    <i name="e_wo_entrp">   -645.41052779 </i>
    <i name="e_0_energy">   -645.41052779 </i>
   </energy>
  </scstep>
  <scstep>
   <time name="diag">    7.67    1.10</time>
   <time name="diis">   10.08    4.69</time>
   <time name="orth">    0.83    0.42</time>
   <time name="total">   23.29    7.08</time>
   <energy>
    <i name="e_fr_energy">   -645.41241068 </i>
    <i name="e_wo_entrp">   -645.41241068 </i>
    <i name="e_0_energy">   -645.41241068 </i>
   </energy>
  </scstep>
  <scstep>
   <time name="diag">    7.63    1.10</time>
   <time name="diis">    9.34    4.29</time>
   <time name="orth">    0.84    0.42</time>
   <time name="total">   22.77    6.71</time>
   <energy>
    <i name="e_fr_energy">   -645.41498498 </i>
    <i name="e_wo_entrp">   -645.41498498 </i>
    <i name="e_0_energy">   -645.41498498 </i>
   </energy>
  </scstep>
  <scstep>
   <time name="diag">    7.64    1.10</time>
   <time name="diis">    9.45    4.34</time>
   <time name="orth">    0.84    0.42</time>
   <time name="total">   22.62    6.72</time>
   <energy>
    <i name="e_fr_energy">   -645.41599374 </i>
    <i name="e_wo_entrp">   -645.41599374 </i>
    <i name="e_0_energy">   -645.41599374 </i>
   </energy>
  </scstep>
  <scstep>
   <time name="diag">    7.66    1.10</time>
   <time name="diis">   10.32    4.78</time>
   <time name="orth">    0.84    0.42</time>
   <time name="total">   23.50    7.15</time>
   <energy>
    <i name="e_fr_energy">   -645.41653769 </i>
    <i name="e_wo_entrp">   -645.41653769 </i>
    <i name="e_0_energy">   -645.41653769 </i>
   </energy>
  </scstep>
  <scstep>
   <time name="diag">    7.66    1.10</time>
   <time name="diis">    9.81    4.55</time>
   <time name="orth">    0.84    0.42</time>
   <time name="total">   22.98    6.93</time>
   <energy>
    <i name="e_fr_energy">   -645.41690138 </i>
    <i name="e_wo_entrp">   -645.41690138 </i>
    <i name="e_0_energy">   -645.41690138 </i>
   </energy>
  </scstep>
  <scstep>
   <time name="diag">    7.66    1.10</time>
   <time name="diis">    9.77    4.50</time>
   <time name="orth">    0.84    0.42</time>
   <time name="total">   23.01    6.90</time>
   <energy>
    <i name="e_fr_energy">   -645.41715052 </i>
    <i name="e_wo_entrp">   -645.41715052 </i>
    <i name="e_0_energy">   -645.41715052 </i>
   </energy>
  </scstep>
  <scstep>
   <time name="diag">    7.67    1.10</time>
   <time name="diis">    9.81    4.56</time>
   <time name="orth">    0.83    0.42</time>
   <time name="total">   23.09    6.97</time>
   <energy>
    <i name="e_fr_energy">   -645.41721087 </i>
    <i name="e_wo_entrp">   -645.41721087 </i>
    <i name="e_0_energy">   -645.41721087 </i>
   </energy>
  </scstep>
  <scstep>
   <time name="diag">    7.77    1.12</time>
   <time name="diis">    8.27    3.78</time>
   <time name="orth">    0.83    0.42</time>
   <time name="total">   21.60    6.19</time>
   <energy>
    <i name="e_fr_energy">   -645.41728461 </i>
    <i name="e_wo_entrp">   -645.41728461 </i>
    <i name="e_0_energy">   -645.41728461 </i>
   </energy>
  </scstep>
  <scstep>
   <time name="diag">    7.65    1.10</time>
   <time name="diis">    8.07    3.68</time>
   <time name="orth">    0.83    0.42</time>
   <time name="total">   21.27    6.06</time>
   <energy>
    <i name="e_fr_energy">   -645.41734252 </i>
    <i name="e_wo_entrp">   -645.41734252 </i>
    <i name="e_0_energy">   -645.41734252 </i>
   </energy>
  </scstep>
  <scstep>
   <time name="diag">    7.63    1.10</time>
   <time name="diis">    7.60    3.44</time>
   <time name="orth">    0.83    0.42</time>
   <time name="total">   20.84    5.83</time>
   <energy>
    <i name="e_fr_energy">   -645.41738109 </i>
    <i name="e_wo_entrp">   -645.41738109 </i>
    <i name="e_0_energy">   -645.41738109 </i>
   </energy>
  </scstep>
  <scstep>
   <time name="diag">    7.65    1.10</time>
   <time name="diis">    6.52    2.89</time>
   <time name="orth">    0.83    0.42</time>
   <time name="total">   19.80    5.29</time>
   <energy>
    <i name="e_fr_energy">   -645.41739650 </i>
    <i name="e_wo_entrp">   -645.41739650 </i>
    <i name="e_0_energy">   -645.41739650 </i>
   </energy>
  </scstep>
  <scstep>
   <time name="diag">    7.66    1.10</time>
   <time name="diis">    6.36    2.81</time>
   <time name="orth">    0.83    0.42</time>
   <time name="total">   19.65    5.21</time>
   <energy>
    <i name="e_fr_energy">   -645.41741140 </i>
    <i name="e_wo_entrp">   -645.41741140 </i>
    <i name="e_0_energy">   -645.41741140 </i>
   </energy>
  </scstep>
  <scstep>
   <time name="diag">    7.66    1.10</time>
   <time name="diis">    5.40    2.33</time>
   <time name="orth">    0.83    0.42</time>
   <time name="total">   18.69    4.72</time>
   <energy>
    <i name="e_fr_energy">   -645.41741413 </i>
    <i name="e_wo_entrp">   -645.41741413 </i>
    <i name="e_0_energy">   -645.41741413 </i>
   </energy>
  </scstep>
  <scstep>
   <time name="diag">    7.67    1.10</time>
   <time name="diis">    5.52    2.39</time>
   <time name="orth">    0.83    0.42</time>
   <time name="total">   18.79    4.78</time>
   <energy>
    <i name="e_fr_energy">   -645.41741710 </i>
    <i name="e_wo_entrp">   -645.41741710 </i>
    <i name="e_0_energy">   -645.41741710 </i>
   </energy>
  </scstep>
  <scstep>
   <time name="diag">    7.66    1.10</time>
   <time name="diis">    5.02    2.13</time>
   <time name="orth">    0.83    0.42</time>
   <time name="total">   18.34    4.53</time>
   <energy>
    <i name="e_fr_energy">   -645.41741940 </i>
    <i name="e_wo_entrp">   -645.41741940 </i>
    <i name="e_0_energy">   -645.41741940 </i>
   </energy>
  </scstep>
  <scstep>
   <time name="diag">    7.68    1.10</time>
   <time name="diis">    5.02    2.13</time>
   <time name="orth">    0.83    0.42</time>
   <time name="total">   17.20    4.19</time>
   <energy>
    <i name="alphaZ">    318.41319391 </i>
    <i name="ewald">  30862.42824000 </i>
    <i name="hartreedc"> -44631.49938300 </i>
    <i name="XCdc">    325.55160170 </i>
    <i name="pawpsdc">   5473.80714530 </i>
    <i name="pawaedc">  -4694.01137126 </i>
    <i name="eentropy">      0.00000000 </i>
    <i name="bandstr">  -1744.65347622 </i>
    <i name="atom">  13444.54662946 </i>
    <i name="e_fr_energy">   -645.41742010 </i>
    <i name="e_wo_entrp">   -645.41742010 </i>
    <i name="e_0_energy">   -645.41742010 </i>
   </energy>
  </scstep>
  <structure>
   <crystal>
    <varray name="basis" >
     <v>       9.28425000       0.00000000       0.00000000 </v>
     <v>       0.00000000      10.72053000       0.00000000 </v>
     <v>       0.00000000       0.00000000      19.49580000 </v>
    </varray>
    <i name="volume">   1940.45753799 </i>
    <varray name="rec_basis" >
     <v>       0.10770929       0.00000000       0.00000000 </v>
     <v>       0.00000000       0.09327897       0.00000000 </v>
     <v>       0.00000000       0.00000000       0.05129310 </v>
    </varray>
   </crystal>
   <varray name="positions" >
    <v>       0.00000000       0.00000000       0.00000000 </v>
    <v>       0.16666700       0.25000000       0.00000000 </v>
    <v>       0.00000000       0.00000000       0.38944500 </v>
    <v>       0.16666700       0.25000000       0.38944500 </v>
    <v>       0.00000000       0.16666600       0.13018000 </v>
    <v>       0.16666700       0.41666600       0.13018000 </v>
    <v>       0.00000000       0.33333400       0.25985200 </v>
    <v>       0.16666700       0.08333300       0.25985200 </v>
    <v>       0.33333300       0.00000000       0.00000000 </v>
    <v>       0.50000000       0.25000000       0.00000000 </v>
    <v>       0.33333300       0.00000000       0.38944500 </v>
    <v>       0.50000000       0.25000000       0.38944500 </v>
    <v>       0.33333300       0.16666600       0.13018000 </v>
    <v>       0.50000000       0.41666600       0.13018000 </v>
    <v>       0.33333300       0.33333400       0.25985200 </v>
    <v>       0.50000000       0.08333300       0.25985200 </v>
    <v>       0.66666700       0.00000000       0.00000000 </v>
    <v>       0.83333300       0.25000000       0.00000000 </v>
    <v>       0.66666700       0.00000000       0.38944500 </v>
    <v>       0.83333300       0.25000000       0.38944500 </v>
    <v>       0.66666700       0.16666600       0.13018000 </v>
    <v>       0.83333300       0.41666600       0.13018000 </v>
    <v>       0.66666700       0.33333400       0.25985200 </v>
    <v>       0.83333300       0.08333400       0.25985200 </v>
    <v>       0.00000000       0.50000000       0.00000000 </v>
    <v>       0.16666700       0.75000000       0.00000000 </v>
    <v>       0.00000000       0.50000000       0.38944500 </v>
    <v>       0.16666700       0.75000000       0.38944500 </v>
    <v>       0.00000000       0.66666600       0.13018000 </v>
    <v>       0.16666700       0.91666600       0.13018000 </v>
    <v>       0.00000000       0.83333400       0.25985200 </v>
    <v>       0.16666700       0.58333400       0.25985200 </v>
    <v>       0.33333300       0.50000000       0.00000000 </v>
    <v>       0.50000000       0.75000000       0.00000000 </v>
    <v>       0.33333300       0.50000000       0.38944500 </v>
    <v>       0.50000000       0.75000000       0.38944500 </v>
    <v>       0.33333300       0.66666600       0.13018000 </v>
    <v>       0.50000000       0.91666700       0.13018000 </v>
    <v>       0.33333300       0.83333400       0.25985200 </v>
    <v>       0.50000000       0.58333400       0.25985200 </v>
    <v>       0.66666700       0.50000000       0.00000000 </v>
    <v>       0.83333300       0.75000000       0.00000000 </v>
    <v>       0.66666700       0.50000000       0.38944500 </v>
    <v>       0.83333300       0.75000000       0.38944500 </v>
    <v>       0.66666700       0.66666600       0.13018000 </v>
    <v>       0.83333300       0.91666700       0.13018000 </v>
    <v>       0.66666700       0.83333400       0.25985200 </v>
    <v>       0.83333300       0.58333400       0.25985200 </v>
    <v>       0.17052245       0.73465524       0.55027669 </v>
    <v>       0.00000000       0.00000000       0.09762400 </v>
    <v>       0.16666700       0.25000000       0.09762400 </v>
    <v>       0.97511793       0.98901429       0.48648783 </v>
    <v>       0.16260250       0.25484113       0.48613971 </v>
    <v>       0.00000000       0.16666600       0.22753200 </v>
    <v>       0.16666700       0.41666600       0.22753200 </v>
    <v>       0.00000000       0.33333400       0.35720700 </v>
    <v>       0.16666700       0.08333300       0.35720700 </v>
    <v>       0.33333300       0.00000000       0.09762400 </v>
    <v>       0.50000000       0.25000000       0.09762400 </v>
    <v>       0.35435983       0.99192883       0.48616795 </v>
    <v>       0.49111730       0.25150766       0.48687946 </v>
    <v>       0.33333300       0.16666600       0.22753200 </v>
    <v>       0.50000000       0.41666600       0.22753200 </v>
    <v>       0.33333300       0.33333400       0.35720700 </v>
    <v>       0.50000000       0.08333300       0.35720700 </v>
    <v>       0.66666700       0.00000000       0.09762400 </v>
    <v>       0.83333300       0.25000000       0.09762400 </v>
    <v>       0.66818743       0.98573714       0.48641147 </v>
    <v>       0.84164505       0.25722048       0.48691708 </v>
    <v>       0.66666700       0.16666600       0.22753200 </v>
    <v>       0.83333300       0.41666600       0.22753200 </v>
    <v>       0.66666700       0.33333400       0.35720700 </v>
    <v>       0.83333300       0.08333400       0.35720700 </v>
    <v>       0.00000000       0.50000000       0.09762400 </v>
    <v>       0.16666700       0.75000000       0.09762400 </v>
    <v>       0.99139481       0.47520039       0.48627740 </v>
    <v>       0.16476634       0.82715715       0.48214301 </v>
    <v>       0.00000000       0.66666600       0.22753200 </v>
    <v>       0.16666700       0.91666600       0.22753200 </v>
    <v>       0.00000000       0.83333400       0.35720700 </v>
    <v>       0.16666700       0.58333400       0.35720700 </v>
    <v>       0.33333300       0.50000000       0.09762400 </v>
    <v>       0.50000000       0.75000000       0.09762400 </v>
    <v>       0.33215624       0.46886243       0.48699765 </v>
    <v>       0.52308381       0.76549790       0.48678018 </v>
    <v>       0.33333300       0.66666600       0.22753200 </v>
    <v>       0.50000000       0.91666700       0.22753200 </v>
    <v>       0.33333300       0.83333400       0.35720700 </v>
    <v>       0.50000000       0.58333400       0.35720700 </v>
    <v>       0.66666700       0.50000000       0.09762400 </v>
    <v>       0.83333300       0.75000000       0.09762400 </v>
    <v>       0.68022716       0.50226767       0.48692617 </v>
    <v>       0.81239903       0.75787088       0.48609823 </v>
    <v>       0.66666700       0.66666600       0.22753200 </v>
    <v>       0.83333300       0.91666700       0.22753200 </v>
    <v>       0.66666700       0.83333400       0.35720700 </v>
    <v>       0.83333300       0.58333400       0.35720700 </v>
    <v>       0.36277300       0.64242376       0.63823878 </v>
   </varray>
  </structure>
  <varray name="forces" >
   <v>      -0.00186841      -0.00175210      -0.17461444 </v>
   <v>       0.00378440      -0.00672878      -0.19000051 </v>
   <v>      -0.36036967      -0.09710789      -0.09921711 </v>
   <v>      -0.07089480      -0.08663616      -0.20708275 </v>
   <v>       0.00907409      -0.00231413       0.03783575 </v>
   <v>      -0.00354396       0.02405501       0.06230077 </v>
   <v>       0.01507819       0.01101756      -0.02980463 </v>
   <v>       0.00011327      -0.05679740       0.13785228 </v>
   <v>      -0.00631013      -0.00498848      -0.19439615 </v>
   <v>       0.00890110       0.00428150      -0.19753176 </v>
   <v>       0.29755675      -0.01442755      -0.22417876 </v>
   <v>      -0.11803640      -0.10041100       0.19301270 </v>
   <v>      -0.00252892      -0.00549745       0.04295952 </v>
   <v>      -0.00342206      -0.00217867       0.07205388 </v>
   <v>      -0.00013882      -0.00725530      -0.00456277 </v>
   <v>       0.02383803       0.03168736       0.05743443 </v>
   <v>       0.00107134      -0.00917585      -0.19392468 </v>
   <v>      -0.00953816      -0.00462272      -0.19089924 </v>
   <v>       0.05337794      -0.07748203      -0.11865128 </v>
   <v>       0.11588777      -0.01096487       0.12622494 </v>
   <v>      -0.00524864       0.00781453       0.04033182 </v>
   <v>       0.00101228      -0.00260911       0.05108212 </v>
   <v>      -0.02054853       0.01015203       0.10890886 </v>
   <v>      -0.01838696       0.04907062       0.05557601 </v>
   <v>       0.01234481      -0.00612840      -0.20590217 </v>
   <v>       0.00628610      -0.00446521      -0.19963090 </v>
   <v>      -0.01248288      -0.26753839       0.07465276 </v>
   <v>      -0.00519423       0.87700919       1.19772192 </v>
   <v>       0.00637706      -0.02282180       0.06109018 </v>
   <v>      -0.00271169      -0.00628375       0.05978475 </v>
   <v>       0.05357456      -0.05130589       0.07397553 </v>
   <v>       0.02277423       0.16817865       0.24306837 </v>
   <v>      -0.00349803       0.00187571      -0.19782876 </v>
   <v>       0.00140438      -0.01703659      -0.19646259 </v>
   <v>      -0.05778947      -0.46308225       0.43265614 </v>
   <v>       0.21160216       0.19169097       0.11906633 </v>
   <v>      -0.00127054      -0.01817228       0.06376174 </v>
   <v>      -0.01414577      -0.01495304       0.02074401 </v>
   <v>      -0.04154247      -0.05621279       0.08280762 </v>
   <v>      -0.04410834      -0.00256216       0.14382831 </v>
   <v>       0.00012180      -0.00585434      -0.16505022 </v>
   <v>      -0.00937551      -0.00692669      -0.20345965 </v>
   <v>       0.14836593       0.04811471       0.18190568 </v>
   <v>      -0.18581686       0.06516695      -0.19207200 </v>
   <v>      -0.00733028      -0.01523372       0.05314538 </v>
   <v>       0.01444299      -0.00890472       0.02024417 </v>
   <v>       0.00125339       0.04129007      -0.07868118 </v>
   <v>       0.03507941       0.00102588       0.06312418 </v>
   <v>      -0.00492848      -0.00494828       0.00740267 </v>
   <v>       0.01734435       0.00939970       0.15149603 </v>
   <v>      -0.00286592       0.00019327       0.16227716 </v>
   <v>      -0.00572511       0.01866405       0.01979691 </v>
   <v>       0.00076224       0.00289993      -0.00627358 </v>
   <v>      -0.03967010       0.00728306      -0.06353147 </v>
   <v>      -0.01119390      -0.10645352      -0.05923293 </v>
   <v>       0.00277166      -0.02012649      -0.35960205 </v>
   <v>      -0.01711765       0.06732954       0.15969257 </v>
   <v>      -0.01820456       0.01055609       0.15139691 </v>
   <v>       0.01348911       0.00754447       0.16723786 </v>
   <v>       0.01521561       0.00315710       0.00969196 </v>
   <v>      -0.01493257      -0.00487943       0.00585073 </v>
   <v>       0.03454073       0.00320475      -0.07640464 </v>
   <v>      -0.02319028      -0.04001904      -0.08196806 </v>
   <v>      -0.06139782      -0.03390200      -0.34278440 </v>
   <v>       0.06270489      -0.05579544      -0.27747537 </v>
   <v>       0.00829026       0.01705584       0.17271613 </v>
   <v>      -0.01074454       0.00876639       0.16083155 </v>
   <v>      -0.00211583      -0.02035888       0.00259502 </v>
   <v>       0.02184607      -0.00097463       0.00199637 </v>
   <v>       0.00363953      -0.04168519      -0.08401697 </v>
   <v>       0.03268449      -0.00671765      -0.06882889 </v>
   <v>       0.05694875      -0.00950515      -0.03459845 </v>
   <v>      -0.05641673      -0.01616204      -0.25245249 </v>
   <v>      -0.01297973       0.01238328       0.16010987 </v>
   <v>       0.00038443       0.01556961       0.15171344 </v>
   <v>       0.00319942      -0.00072784       0.01294872 </v>
   <v>       0.00145439      -0.02201826       0.00370889 </v>
   <v>      -0.06160480       0.04073139      -0.12226066 </v>
   <v>      -0.00793767      -0.01869491      -0.09968502 </v>
   <v>      -0.36057111       0.06886020      -0.44449101 </v>
   <v>      -0.05643492      -0.25786596       0.65658655 </v>
   <v>       0.01793876       0.01206416       0.13468148 </v>
   <v>       0.00965502       0.01822615       0.15797700 </v>
   <v>      -0.00078186       0.00986340       0.02116400 </v>
   <v>      -0.00567329       0.01411487       0.00910012 </v>
   <v>       0.02857484       0.04637188      -0.13268033 </v>
   <v>       0.05751309      -0.00512278      -0.05520206 </v>
   <v>       0.32884353       0.09594114      -0.38378135 </v>
   <v>       0.08422924       0.01511040       0.25840196 </v>
   <v>      -0.00424562       0.00842123       0.12650829 </v>
   <v>      -0.00701464       0.01539284       0.16723851 </v>
   <v>      -0.00142283       0.00719619       0.01564792 </v>
   <v>      -0.01373367       0.01103670       0.00048356 </v>
   <v>       0.03093954       0.06845243      -0.06032850 </v>
   <v>      -0.05240713      -0.00895298      -0.05428312 </v>
   <v>       0.01638999      -0.01496653      -0.51693824 </v>
   <v>      -0.01948702       0.01523504      -0.08213777 </v>
   <v>      -0.01378265      -0.01514733      -0.00349345 </v>
  </varray>
  <varray name="stress" >
   <v>     -33.06795585       0.23501033      -0.09706393 </v>
   <v>       0.23501032     -34.72655832       0.02636101 </v>
   <v>      -0.09706362       0.02636131       1.94129477 </v>
  </varray>
  <energy>
   <i name="e_fr_energy">   -645.41742010 </i>
   <i name="e_wo_entrp">   -645.41742010 </i>
   <i name="e_0_energy">   -645.41742010 </i>
  </energy>
  <time name="totalsc"> 1046.38  248.49</time>
  <eigenvalues>
   <array>
    <dimension dim="1">band</dimension>
    <dimension dim="2">kpoint</dimension>
    <dimension dim="3">spin</dimension>
    <field>eigene</field>
    <field>occ</field>
    <set>
     <set comment="spin 1">
      <set comment="kpoint 1">
       <r>  -29.2824    1.0000 </r>
       <r>  -23.5654    1.0000 </r>
       <r>  -13.7202    1.0000 </r>
       <r>  -12.8460    1.0000 </r>
       <r>  -12.8135    1.0000 </r>
       <r>  -12.7967    1.0000 </r>
       <r>  -12.7592    1.0000 </r>
       <r>  -12.7051    1.0000 </r>
       <r>  -12.6463    1.0000 </r>
       <r>  -12.3442    1.0000 </r>
       <r>  -12.3331    1.0000 </r>
       <r>  -11.8880    1.0000 </r>
       <r>  -11.7771    1.0000 </r>
       <r>  -11.5377    1.0000 </r>
       <r>  -11.5290    1.0000 </r>
       <r>  -11.5120    1.0000 </r>
       <r>  -11.4144    1.0000 </r>
       <r>  -11.4078    1.0000 </r>
       <r>  -11.3645    1.0000 </r>
       <r>  -11.3534    1.0000 </r>
       <r>  -10.7033    1.0000 </r>
       <r>  -10.6772    1.0000 </r>
       <r>  -10.6321    1.0000 </r>
       <r>  -10.6037    1.0000 </r>
       <r>  -10.5944    1.0000 </r>
       <r>  -10.5433    1.0000 </r>
       <r>  -10.3964    1.0000 </r>
       <r>  -10.3140    1.0000 </r>
       <r>  -10.3067    1.0000 </r>
       <r>  -10.0032    1.0000 </r>
       <r>   -9.6583    1.0000 </r>
       <r>   -9.6504    1.0000 </r>
       <r>   -9.6122    1.0000 </r>
       <r>   -9.6000    1.0000 </r>
       <r>   -9.5016    1.0000 </r>
       <r>   -9.4843    1.0000 </r>
       <r>   -9.4405    1.0000 </r>
       <r>   -9.4219    1.0000 </r>
       <r>   -9.4142    1.0000 </r>
       <r>   -9.2426    1.0000 </r>
       <r>   -9.2422    1.0000 </r>
       <r>   -8.4578    1.0000 </r>
       <r>   -7.8358    1.0000 </r>
       <r>   -7.7597    1.0000 </r>
       <r>   -7.7010    1.0000 </r>
       <r>   -7.6098    1.0000 </r>
       <r>   -7.6061    1.0000 </r>
       <r>   -7.5961    1.0000 </r>
       <r>   -7.4774    1.0000 </r>
       <r>   -7.4772    1.0000 </r>
       <r>   -7.4216    1.0000 </r>
       <r>   -7.4186    1.0000 </r>
       <r>   -7.4148    1.0000 </r>
       <r>   -7.4129    1.0000 </r>
       <r>   -7.0833    1.0000 </r>
       <r>   -6.7649    1.0000 </r>
       <r>   -6.6777    1.0000 </r>
       <r>   -6.2882    1.0000 </r>
       <r>   -6.2276    1.0000 </r>
       <r>   -6.1632    1.0000 </r>
       <r>   -5.9677    1.0000 </r>
       <r>   -5.9181    1.0000 </r>
       <r>   -5.8956    1.0000 </r>
       <r>   -5.8772    1.0000 </r>
       <r>   -5.8670    1.0000 </r>
       <r>   -5.8603    1.0000 </r>
       <r>   -5.8206    1.0000 </r>
       <r>   -5.8018    1.0000 </r>
       <r>   -5.6540    1.0000 </r>
       <r>   -5.5435    1.0000 </r>
       <r>   -5.3725    1.0000 </r>
       <r>   -5.2783    1.0000 </r>
       <r>   -5.2531    1.0000 </r>
       <r>   -5.1087    1.0000 </r>
       <r>   -5.0397    1.0000 </r>
       <r>   -5.0044    1.0000 </r>
       <r>   -5.0006    1.0000 </r>
       <r>   -4.9894    1.0000 </r>
       <r>   -4.8864    1.0000 </r>
       <r>   -4.6897    1.0000 </r>
       <r>   -4.6207    1.0000 </r>
       <r>   -4.5865    1.0000 </r>
       <r>   -4.5257    1.0000 </r>
       <r>   -4.4727    1.0000 </r>
       <r>   -4.3475    1.0000 </r>
       <r>   -4.3307    1.0000 </r>
       <r>   -4.2877    1.0000 </r>
       <r>   -4.2396    1.0000 </r>
       <r>   -4.2178    1.0000 </r>
       <r>   -4.1327    1.0000 </r>
       <r>   -4.0941    1.0000 </r>
       <r>   -4.0032    1.0000 </r>
       <r>   -3.9334    1.0000 </r>
       <r>   -3.9237    1.0000 </r>
       <r>   -3.8826    1.0000 </r>
       <r>   -3.8611    1.0000 </r>
       <r>   -3.8501    1.0000 </r>
       <r>   -3.5802    1.0000 </r>
       <r>   -3.5496    1.0000 </r>
       <r>   -3.5303    1.0000 </r>
       <r>   -3.4104    1.0000 </r>
       <r>   -3.2222    1.0000 </r>
       <r>   -2.9707    1.0000 </r>
       <r>   -2.9602    1.0000 </r>
       <r>   -2.8708    1.0000 </r>
       <r>   -2.8368    1.0000 </r>
       <r>   -2.8180    1.0000 </r>
       <r>   -2.7962    1.0000 </r>
       <r>   -2.7765    1.0000 </r>
       <r>   -2.7699    1.0000 </r>
       <r>   -2.7137    1.0000 </r>
       <r>   -2.6957    1.0000 </r>
       <r>   -2.6473    1.0000 </r>
       <r>   -2.6309    1.0000 </r>
       <r>   -2.5920    1.0000 </r>
       <r>   -2.2976    1.0000 </r>
       <r>   -2.2235    1.0000 </r>
       <r>   -2.1122    1.0000 </r>
       <r>   -1.9377    1.0000 </r>
       <r>   -1.9113    1.0000 </r>
       <r>   -1.9003    1.0000 </r>
       <r>   -1.8931    1.0000 </r>
       <r>   -1.7886    1.0000 </r>
       <r>   -1.7555    1.0000 </r>
       <r>   -1.6813    1.0000 </r>
       <r>   -1.6611    1.0000 </r>
       <r>   -1.6559    1.0000 </r>
       <r>   -1.6462    1.0000 </r>
       <r>   -1.6339    1.0000 </r>
       <r>   -1.6275    1.0000 </r>
       <r>   -1.6248    1.0000 </r>
       <r>   -1.5540    1.0000 </r>
       <r>   -1.5470    1.0000 </r>
       <r>   -1.5253    1.0000 </r>
       <r>   -1.3771    1.0000 </r>
       <r>   -1.3127    1.0000 </r>
       <r>   -1.2915    1.0000 </r>
       <r>   -1.1393    1.0000 </r>
       <r>   -1.1189    1.0000 </r>
       <r>   -1.0853    1.0000 </r>
       <r>   -1.0082    1.0000 </r>
       <r>   -0.9666    1.0000 </r>
       <r>   -0.9590    1.0000 </r>
       <r>   -0.9147    1.0000 </r>
       <r>   -0.8943    1.0000 </r>
       <r>   -0.8868    1.0000 </r>
       <r>   -0.8622    1.0000 </r>
       <r>   -0.8593    1.0000 </r>
       <r>   -0.8486    1.0000 </r>
       <r>   -0.6651    1.0000 </r>
       <r>   -0.6551    1.0000 </r>
       <r>   -0.5547    1.0000 </r>
       <r>   -0.5302    1.0000 </r>
       <r>   -0.4811    1.0000 </r>
       <r>   -0.3565    1.0000 </r>
       <r>   -0.3187    1.0000 </r>
       <r>   -0.2899    1.0000 </r>
       <r>   -0.2436    1.0000 </r>
       <r>   -0.2112    1.0000 </r>
       <r>   -0.1815    1.0000 </r>
       <r>   -0.1625    1.0000 </r>
       <r>   -0.1460    1.0000 </r>
       <r>   -0.1209    1.0000 </r>
       <r>    0.0384    1.0000 </r>
       <r>    0.0725    1.0000 </r>
       <r>    0.1375    1.0000 </r>
       <r>    0.3334    1.0000 </r>
       <r>    0.3451    1.0000 </r>
       <r>    0.4390    1.0000 </r>
       <r>    0.4657    1.0000 </r>
       <r>    0.4682    1.0000 </r>
       <r>    0.5982    1.0000 </r>
       <r>    0.6672    1.0000 </r>
       <r>    0.7069    1.0000 </r>
       <r>    0.7090    1.0000 </r>
       <r>    0.8137    1.0000 </r>
       <r>    0.8573    1.0000 </r>
       <r>    0.8745    1.0000 </r>
       <r>    0.8847    1.0000 </r>
       <r>    0.8901    1.0000 </r>
       <r>    1.0482    1.0000 </r>
       <r>    1.0611    1.0000 </r>
       <r>    1.1158    1.0000 </r>
       <r>    1.1406    1.0000 </r>
       <r>    1.1447    1.0000 </r>
       <r>    1.1500    1.0000 </r>
       <r>    1.1565    1.0000 </r>
       <r>    1.1993    1.0000 </r>
       <r>    1.2065    1.0000 </r>
       <r>    1.2178    1.0000 </r>
       <r>    1.3438    1.0000 </r>
[...]
       <r>   -16.3957     0.0000     4.0000 </r>
       <r>   -16.2634     0.0000     4.0000 </r>
       <r>   -16.1310     0.0000     4.0000 </r>
       <r>   -15.9987     0.0000     4.0000 </r>
       <r>   -15.8663     0.0000     4.0000 </r>
       <r>   -15.7340     0.0000     4.0000 </r>
       <r>   -15.6016     0.0000     4.0000 </r>
       <r>   -15.4693     0.0000     4.0000 </r>
       <r>   -15.3369     0.0000     4.0000 </r>
       <r>   -15.2045     0.0000     4.0000 </r>
       <r>   -15.0722     0.0000     4.0000 </r>
       <r>   -14.9398     0.0000     4.0000 </r>
       <r>   -14.8075     0.0000     4.0000 </r>
       <r>   -14.6751     0.0000     4.0000 </r>
       <r>   -14.5428     0.0000     4.0000 </r>
       <r>   -14.4104     0.0000     4.0000 </r>
       <r>   -14.2780     0.0000     4.0000 </r>
       <r>   -14.1457     0.0000     4.0000 </r>
       <r>   -14.0133     0.0000     4.0000 </r>
       <r>   -13.8810     0.0000     4.0000 </r>
       <r>   -13.7486     0.0000     4.0000 </r>
       <r>   -13.6163     5.9953     4.3392 </r>
       <r>   -13.4839     6.4471     5.2711 </r>
       <r>   -13.3516     3.5318     5.7852 </r>
       <r>   -13.2192    11.7686     6.4639 </r>
       <r>   -13.0868     3.7301     7.4592 </r>
       <r>   -12.9545     2.3311     7.8603 </r>
       <r>   -12.8221    25.7427     9.3670 </r>
       <r>   -12.6898    52.3716    16.0525 </r>
       <r>   -12.5574     8.7492    17.4581 </r>
       <r>   -12.4251    15.3087    18.9794 </r>
       <r>   -12.2927    18.8066    20.7259 </r>
       <r>   -12.1603     5.8747    22.0782 </r>
       <r>   -12.0280    10.3638    22.8756 </r>
       <r>   -11.8956    20.7010    24.8790 </r>
       <r>   -11.7633     5.1118    26.4262 </r>
       <r>   -11.6309    16.8518    27.5583 </r>
       <r>   -11.4986    18.8828    29.8901 </r>
       <r>   -11.3662    17.9600    32.0218 </r>
       <r>   -11.2339    12.8539    33.7406 </r>
       <r>   -11.1015    32.4009    36.5271 </r>
       <r>   -10.9691    15.9253    38.8139 </r>
       <r>   -10.8368    22.0448    41.2497 </r>
       <r>   -10.7044    28.6549    44.9571 </r>
       <r>   -10.5721    20.5217    47.2354 </r>
       <r>   -10.4397    22.0685    50.1317 </r>
       <r>   -10.3074    18.3584    52.9144 </r>
       <r>   -10.1750    20.3315    55.8723 </r>
       <r>   -10.0426    28.9797    58.7755 </r>
       <r>    -9.9103    38.1654    63.5993 </r>
       <r>    -9.7779    10.2358    65.9685 </r>
       <r>    -9.6456    22.9938    68.7835 </r>
       <r>    -9.5132    21.3607    71.1283 </r>
       <r>    -9.3809    39.4221    75.0350 </r>
       <r>    -9.2485    26.0249    78.6754 </r>
       <r>    -9.1162    15.1107    82.0000 </r>
       <r>    -8.9838     0.0000    82.0000 </r>
       <r>    -8.8514     0.0000    82.0000 </r>
       <r>    -8.7191     0.0000    82.0000 </r>
       <r>    -8.5867     0.0000    82.0000 </r>
       <r>    -8.4544     0.3923    82.0007 </r>
       <r>    -8.3220    10.2758    82.9987 </r>
       <r>    -8.1897     4.9944    83.8063 </r>
       <r>    -8.0573    11.8594    85.2042 </r>
       <r>    -7.9249     3.1043    85.8612 </r>
       <r>    -7.7926    17.3776    87.2922 </r>
       <r>    -7.6602    14.7416    89.4195 </r>
       <r>    -7.5279    57.6343    94.2536 </r>
       <r>    -7.3955   133.5567   105.4192 </r>
       <r>    -7.2632    12.8728   108.0218 </r>
       <r>    -7.1308    38.0194   109.4849 </r>
       <r>    -6.9985     0.0000   110.0000 </r>
       <r>    -6.8661    18.3559   111.4086 </r>
       <r>    -6.7337     9.0748   112.2796 </r>
       <r>    -6.6014    12.2915   113.8164 </r>
       <r>    -6.4690    12.7694   115.6564 </r>
       <r>    -6.3367    14.5385   117.2591 </r>
       <r>    -6.2043    19.1038   120.0984 </r>
       <r>    -6.0720    35.9736   123.6016 </r>
       <r>    -5.9396    17.8546   126.1932 </r>
       <r>    -5.8072    31.8739   129.9370 </r>
       <r>    -5.6749    33.6346   133.5968 </r>
       <r>    -5.5425    35.0082   137.0972 </r>
       <r>    -5.4102    34.9033   140.8012 </r>
       <r>    -5.2778    23.9531   143.4730 </r>
       <r>    -5.1455    20.4177   145.9669 </r>
       <r>    -5.0131    28.9263   149.1071 </r>
       <r>    -4.8808    43.8970   152.7156 </r>
       <r>    -4.7484    61.4791   158.2627 </r>
       <r>    -4.6160    29.5680   163.1064 </r>
       <r>    -4.4837    59.3549   168.3844 </r>
       <r>    -4.3513    62.7512   172.7188 </r>
       <r>    -4.2190    39.8064   177.5601 </r>
       <r>    -4.0866    29.7692   181.0764 </r>
       <r>    -3.9543    40.6609   183.9532 </r>
       <r>    -3.8219    30.5468   187.7278 </r>
       <r>    -3.6895    23.6851   190.5987 </r>
       <r>    -3.5572    19.8853   193.2256 </r>
       <r>    -3.4248    12.0803   195.7175 </r>
       <r>    -3.2925    18.2642   197.7914 </r>
       <r>    -3.1601    22.9099   200.5578 </r>
       <r>    -3.0278    20.8744   203.4398 </r>
       <r>    -2.8954    36.1741   206.9173 </r>
       <r>    -2.7631    62.4170   212.8002 </r>
       <r>    -2.6307    54.0146   220.6912 </r>
       <r>    -2.4983    43.7722   226.9114 </r>
       <r>    -2.3660    53.2539   232.4114 </r>
       <r>    -2.2336    25.3993   236.8371 </r>
       <r>    -2.1013    17.2225   239.1579 </r>
       <r>    -1.9689    47.9890   243.1817 </r>
       <r>    -1.8366    44.9288   247.8965 </r>
       <r>    -1.7042    56.8456   253.2839 </r>
       <r>    -1.5718    54.9919   259.9822 </r>
       <r>    -1.4395    46.0266   265.7796 </r>
       <r>    -1.3071    38.0321   270.4147 </r>
       <r>    -1.1748    60.4466   276.5473 </r>
       <r>    -1.0424    63.0327   282.5993 </r>
       <r>    -0.9101    62.2178   290.1425 </r>
       <r>    -0.7777    44.4309   295.5940 </r>
       <r>    -0.6454    48.7170   301.5035 </r>
       <r>    -0.5130    36.8565   306.1169 </r>
       <r>    -0.3806    42.2169   310.7011 </r>
       <r>    -0.2483    69.8163   317.0100 </r>
       <r>    -0.1159    73.2180   324.9478 </r>
       <r>     0.0164    47.0843   329.6767 </r>
       <r>     0.1488    53.7348   336.4107 </r>
       <r>     0.2811    28.2477   340.5866 </r>
       <r>     0.4135    22.9004   343.4791 </r>
       <r>     0.5459    26.5146   346.8893 </r>
       <r>     0.6782    28.4801   350.0557 </r>
       <r>     0.8106    66.7419   355.2744 </r>
       <r>     0.9429    17.6292   360.0000 </r>
       <r>     1.0753   121.8647   367.4930 </r>
       <r>     1.2076    56.9471   374.2504 </r>
       <r>     1.3400    72.4533   380.5263 </r>
       <r>     1.4723    24.1917   384.0840 </r>
       <r>     1.6047    81.2545   390.4009 </r>
       <r>     1.7371    32.2060   396.2462 </r>
       <r>     1.8694    26.6291   398.0700 </r>
       <r>     2.0018    24.2022   402.0525 </r>
       <r>     2.1341    17.5035   404.1563 </r>
       <r>     2.2665    22.1027   406.2220 </r>
       <r>     2.3988    20.0967   409.1290 </r>
       <r>     2.5312    19.4653   411.7733 </r>
       <r>     2.6636    16.2021   414.1694 </r>
       <r>     2.7959    14.4136   416.0114 </r>
       <r>     2.9283    41.7754   418.9495 </r>
       <r>     3.0606    19.3670   420.6002 </r>
       <r>     3.1930    20.5533   422.8287 </r>
       <r>     3.3253    19.4999   424.3730 </r>
       <r>     3.4577    40.9375   428.6302 </r>
       <r>     3.5900    32.0659   431.9051 </r>
       <r>     3.7224    24.1670   435.0413 </r>
       <r>     3.8548    44.4784   439.6983 </r>
       <r>     3.9871    34.3404   444.7508 </r>
       <r>     4.1195    32.7954   447.1079 </r>
       <r>     4.2518    25.4565   450.8015 </r>
       <r>     4.3842    15.9879   453.4645 </r>
       <r>     4.5165    20.7267   455.6272 </r>
       <r>     4.6489    33.8855   458.5072 </r>
       <r>     4.7813     4.9462   459.8518 </r>
       <r>     4.9136    26.5567   461.9037 </r>
       <r>     5.0460    18.7189   463.6499 </r>
       <r>     5.1783    23.3720   467.1880 </r>
       <r>     5.3107    32.0718   469.8475 </r>
       <r>     5.4430    38.2856   473.0022 </r>
       <r>     5.5754    27.7778   476.4392 </r>
       <r>     5.7077    26.7434   479.8649 </r>
       <r>     5.8401    38.5193   484.3606 </r>
       <r>     5.9725    21.3203   487.2171 </r>
       <r>     6.1048    34.9626   490.9680 </r>
       <r>     6.2372    26.0140   494.9470 </r>
       <r>     6.3695    26.7114   498.1533 </r>
       <r>     6.5019    21.6080   501.9016 </r>
       <r>     6.6342     8.6830   503.3316 </r>
       <r>     6.7666     3.8775   503.8467 </r>
       <r>     6.8990     0.0000   504.0000 </r>
       <r>     7.0313     0.0000   504.0000 </r>
       <r>     7.1637     0.0000   504.0000 </r>
       <r>     7.2960     0.0000   504.0000 </r>
       <r>     7.4284     0.0000   504.0000 </r>
       <r>     7.5607     0.0000   504.0000 </r>
       <r>     7.6931     0.0000   504.0000 </r>
       <r>     7.8254     0.0000   504.0000 </r>
       <r>     7.9578     0.0000   504.0000 </r>
       <r>     8.0902     0.0000   504.0000 </r>
       <r>     8.2225     0.0000   504.0000 </r>
       <r>     8.3549     0.0000   504.0000 </r>
       <r>     8.4872     0.0000   504.0000 </r>
       <r>     8.6196     0.0000   504.0000 </r>
      </set>
     </set>
    </array>
   </total>
  </dos>
 </calculation>
 <structure name="finalpos" >
  <crystal>
   <varray name="basis" >
    <v>       9.28425000       0.00000000       0.00000000 </v>
    <v>       0.00000000      10.72053000       0.00000000 </v>
    <v>       0.00000000       0.00000000      19.49580000 </v>
   </varray>
   <i name="volume">   1940.45753799 </i>
   <varray name="rec_basis" >
    <v>       0.10770929       0.00000000       0.00000000 </v>
    <v>       0.00000000       0.09327897       0.00000000 </v>
    <v>       0.00000000       0.00000000       0.05129310 </v>
   </varray>
  </crystal>
  <varray name="positions" >
   <v>       0.00000000       0.00000000       0.00000000 </v>
   <v>       0.16666700       0.25000000       0.00000000 </v>
   <v>       0.00000000       0.00000000       0.38944500 </v>
   <v>       0.16666700       0.25000000       0.38944500 </v>
   <v>       0.00000000       0.16666600       0.13018000 </v>
   <v>       0.16666700       0.41666600       0.13018000 </v>
   <v>       0.00000000       0.33333400       0.25985200 </v>
   <v>       0.16666700       0.08333300       0.25985200 </v>
   <v>       0.33333300       0.00000000       0.00000000 </v>
   <v>       0.50000000       0.25000000       0.00000000 </v>
   <v>       0.33333300       0.00000000       0.38944500 </v>
   <v>       0.50000000       0.25000000       0.38944500 </v>
   <v>       0.33333300       0.16666600       0.13018000 </v>
   <v>       0.50000000       0.41666600       0.13018000 </v>
   <v>       0.33333300       0.33333400       0.25985200 </v>
   <v>       0.50000000       0.08333300       0.25985200 </v>
   <v>       0.66666700       0.00000000       0.00000000 </v>
   <v>       0.83333300       0.25000000       0.00000000 </v>
   <v>       0.66666700       0.00000000       0.38944500 </v>
   <v>       0.83333300       0.25000000       0.38944500 </v>
   <v>       0.66666700       0.16666600       0.13018000 </v>
   <v>       0.83333300       0.41666600       0.13018000 </v>
   <v>       0.66666700       0.33333400       0.25985200 </v>
   <v>       0.83333300       0.08333400       0.25985200 </v>
   <v>       0.00000000       0.50000000       0.00000000 </v>
   <v>       0.16666700       0.75000000       0.00000000 </v>
   <v>       0.00000000       0.50000000       0.38944500 </v>
   <v>       0.16666700       0.75000000       0.38944500 </v>
   <v>       0.00000000       0.66666600       0.13018000 </v>
   <v>       0.16666700       0.91666600       0.13018000 </v>
   <v>       0.00000000       0.83333400       0.25985200 </v>
   <v>       0.16666700       0.58333400       0.25985200 </v>
   <v>       0.33333300       0.50000000       0.00000000 </v>
   <v>       0.50000000       0.75000000       0.00000000 </v>
   <v>       0.33333300       0.50000000       0.38944500 </v>
   <v>       0.50000000       0.75000000       0.38944500 </v>
   <v>       0.33333300       0.66666600       0.13018000 </v>
   <v>       0.50000000       0.91666700       0.13018000 </v>
   <v>       0.33333300       0.83333400       0.25985200 </v>
   <v>       0.50000000       0.58333400       0.25985200 </v>
   <v>       0.66666700       0.50000000       0.00000000 </v>
   <v>       0.83333300       0.75000000       0.00000000 </v>
   <v>       0.66666700       0.50000000       0.38944500 </v>
   <v>       0.83333300       0.75000000       0.38944500 </v>
   <v>       0.66666700       0.66666600       0.13018000 </v>
   <v>       0.83333300       0.91666700       0.13018000 </v>
   <v>       0.66666700       0.83333400       0.25985200 </v>
   <v>       0.83333300       0.58333400       0.25985200 </v>
   <v>       0.17052245       0.73465524       0.55027669 </v>
   <v>       0.00000000       0.00000000       0.09762400 </v>
   <v>       0.16666700       0.25000000       0.09762400 </v>
   <v>       0.97511793       0.98901429       0.48648783 </v>
   <v>       0.16260250       0.25484113       0.48613971 </v>
   <v>       0.00000000       0.16666600       0.22753200 </v>
   <v>       0.16666700       0.41666600       0.22753200 </v>
   <v>       0.00000000       0.33333400       0.35720700 </v>
   <v>       0.16666700       0.08333300       0.35720700 </v>
   <v>       0.33333300       0.00000000       0.09762400 </v>
   <v>       0.50000000       0.25000000       0.09762400 </v>
   <v>       0.35435983       0.99192883       0.48616795 </v>
   <v>       0.49111730       0.25150766       0.48687946 </v>
   <v>       0.33333300       0.16666600       0.22753200 </v>
   <v>       0.50000000       0.41666600       0.22753200 </v>
   <v>       0.33333300       0.33333400       0.35720700 </v>
   <v>       0.50000000       0.08333300       0.35720700 </v>
   <v>       0.66666700       0.00000000       0.09762400 </v>
   <v>       0.83333300       0.25000000       0.09762400 </v>
   <v>       0.66818743       0.98573714       0.48641147 </v>
   <v>       0.84164505       0.25722048       0.48691708 </v>
   <v>       0.66666700       0.16666600       0.22753200 </v>
   <v>       0.83333300       0.41666600       0.22753200 </v>
   <v>       0.66666700       0.33333400       0.35720700 </v>
   <v>       0.83333300       0.08333400       0.35720700 </v>
   <v>       0.00000000       0.50000000       0.09762400 </v>
   <v>       0.16666700       0.75000000       0.09762400 </v>
   <v>       0.99139481       0.47520039       0.48627740 </v>
   <v>       0.16476634       0.82715715       0.48214301 </v>
   <v>       0.00000000       0.66666600       0.22753200 </v>
   <v>       0.16666700       0.91666600       0.22753200 </v>
   <v>       0.00000000       0.83333400       0.35720700 </v>
   <v>       0.16666700       0.58333400       0.35720700 </v>
   <v>       0.33333300       0.50000000       0.09762400 </v>
   <v>       0.50000000       0.75000000       0.09762400 </v>
   <v>       0.33215624       0.46886243       0.48699765 </v>
   <v>       0.52308381       0.76549790       0.48678018 </v>
   <v>       0.33333300       0.66666600       0.22753200 </v>
   <v>       0.50000000       0.91666700       0.22753200 </v>
   <v>       0.33333300       0.83333400       0.35720700 </v>
   <v>       0.50000000       0.58333400       0.35720700 </v>
   <v>       0.66666700       0.50000000       0.09762400 </v>
   <v>       0.83333300       0.75000000       0.09762400 </v>
   <v>       0.68022716       0.50226767       0.48692617 </v>
   <v>       0.81239903       0.75787088       0.48609823 </v>
   <v>       0.66666700       0.66666600       0.22753200 </v>
   <v>       0.83333300       0.91666700       0.22753200 </v>
   <v>       0.66666700       0.83333400       0.35720700 </v>
   <v>       0.83333300       0.58333400       0.35720700 </v>
   <v>       0.36277300       0.64242376       0.63823878 </v>
  </varray>
  <varray name="selective"  type="logical" >
   <v type="logical" >  F  F  F </v>
   <v type="logical" >  F  F  F </v>
   <v type="logical" >  F  F  F </v>
   <v type="logical" >  F  F  F </v>
   <v type="logical" >  F  F  F </v>
   <v type="logical" >  F  F  F </v>
   <v type="logical" >  F  F  F </v>
   <v type="logical" >  F  F  F </v>
   <v type="logical" >  F  F  F </v>
   <v type="logical" >  F  F  F </v>
   <v type="logical" >  F  F  F </v>
   <v type="logical" >  F  F  F </v>
   <v type="logical" >  F  F  F </v>
   <v type="logical" >  F  F  F </v>
   <v type="logical" >  F  F  F </v>
   <v type="logical" >  F  F  F </v>
   <v type="logical" >  F  F  F </v>
   <v type="logical" >  F  F  F </v>
   <v type="logical" >  F  F  F </v>
   <v type="logical" >  F  F  F </v>
   <v type="logical" >  F  F  F </v>
   <v type="logical" >  F  F  F </v>
   <v type="logical" >  F  F  F </v>
   <v type="logical" >  F  F  F </v>
   <v type="logical" >  F  F  F </v>
   <v type="logical" >  F  F  F </v>
   <v type="logical" >  F  F  F </v>
   <v type="logical" >  F  F  F </v>
   <v type="logical" >  F  F  F </v>
   <v type="logical" >  F  F  F </v>
   <v type="logical" >  F  F  F </v>
   <v type="logical" >  F  F  F </v>
   <v type="logical" >  F  F  F </v>
   <v type="logical" >  F  F  F </v>
   <v type="logical" >  F  F  F </v>
   <v type="logical" >  F  F  F </v>
   <v type="logical" >  F  F  F </v>
   <v type="logical" >  F  F  F </v>
   <v type="logical" >  F  F  F </v>
   <v type="logical" >  F  F  F </v>
   <v type="logical" >  F  F  F </v>
   <v type="logical" >  F  F  F </v>
   <v type="logical" >  F  F  F </v>
   <v type="logical" >  F  F  F </v>
   <v type="logical" >  F  F  F </v>
   <v type="logical" >  F  F  F </v>
   <v type="logical" >  F  F  F </v>
   <v type="logical" >  F  F  F </v>
   <v type="logical" >  T  T  T </v>
   <v type="logical" >  F  F  F </v>
   <v type="logical" >  F  F  F </v>
   <v type="logical" >  T  T  T </v>
   <v type="logical" >  T  T  T </v>
   <v type="logical" >  F  F  F </v>
   <v type="logical" >  F  F  F </v>
   <v type="logical" >  F  F  F </v>
   <v type="logical" >  F  F  F </v>
   <v type="logical" >  F  F  F </v>
   <v type="logical" >  F  F  F </v>
   <v type="logical" >  T  T  T </v>
   <v type="logical" >  T  T  T </v>
   <v type="logical" >  F  F  F </v>
   <v type="logical" >  F  F  F </v>
   <v type="logical" >  F  F  F </v>
   <v type="logical" >  F  F  F </v>
   <v type="logical" >  F  F  F </v>
   <v type="logical" >  F  F  F </v>
   <v type="logical" >  T  T  T </v>
   <v type="logical" >  T  T  T </v>
   <v type="logical" >  F  F  F </v>
   <v type="logical" >  F  F  F </v>
   <v type="logical" >  F  F  F </v>
   <v type="logical" >  F  F  F </v>
   <v type="logical" >  F  F  F </v>
   <v type="logical" >  F  F  F </v>
   <v type="logical" >  T  T  T </v>
   <v type="logical" >  T  T  T </v>
   <v type="logical" >  F  F  F </v>
   <v type="logical" >  F  F  F </v>
   <v type="logical" >  F  F  F </v>
   <v type="logical" >  F  F  F </v>
   <v type="logical" >  F  F  F </v>
   <v type="logical" >  F  F  F </v>
   <v type="logical" >  T  T  T </v>
   <v type="logical" >  T  T  T </v>
   <v type="logical" >  F  F  F </v>
   <v type="logical" >  F  F  F </v>
   <v type="logical" >  F  F  F </v>
   <v type="logical" >  F  F  F </v>
   <v type="logical" >  F  F  F </v>
   <v type="logical" >  F  F  F </v>
   <v type="logical" >  T  T  T </v>
   <v type="logical" >  T  T  T </v>
   <v type="logical" >  F  F  F </v>
   <v type="logical" >  F  F  F </v>
   <v type="logical" >  F  F  F </v>
   <v type="logical" >  F  F  F </v>
   <v type="logical" >  T  T  T </v>
  </varray>
  <nose>
   <v>      -3.00000000       0.00000000       0.00010000       0.00010000 </v>
  </nose>
 </structure>
</modeling>
