  74  74   0   0
  0.2332648E+02  0.9614902E-09  0.8326749E-09  0.2156059E-08  0.5000000E-15
  1.000000000000000E-004
  CAR 
 ni3al                                   
      8.91647288    -32.36377914  301     -2.92838470      1.00000000
    -32.364  0.0000E+00  0.0000E+00
    -32.226  0.0000E+00  0.0000E+00
    -32.089  0.0000E+00  0.0000E+00
    -31.951  0.0000E+00  0.0000E+00
    -31.813  0.0000E+00  0.0000E+00
    -31.676  0.0000E+00  0.0000E+00
    -31.538  0.0000E+00  0.0000E+00
    -31.401  0.0000E+00  0.0000E+00
    -31.263  0.0000E+00  0.0000E+00
    -31.125  0.0000E+00  0.0000E+00
    -30.988  0.0000E+00  0.0000E+00
    -30.850  0.0000E+00  0.0000E+00
    -30.713  0.0000E+00  0.0000E+00
    -30.575  0.0000E+00  0.0000E+00
    -30.437  0.1453E+02  0.2000E+01
    -30.300  0.0000E+00  0.2000E+01
    -30.162  0.0000E+00  0.2000E+01
    -30.025  0.0000E+00  0.2000E+01
    -29.887  0.0000E+00  0.2000E+01
    -29.749  0.0000E+00  0.2000E+01
    -29.612  0.0000E+00  0.2000E+01
    -29.474  0.0000E+00  0.2000E+01
    -29.337  0.0000E+00  0.2000E+01
    -29.199  0.0000E+00  0.2000E+01
    -29.061  0.0000E+00  0.2000E+01
    -28.924  0.0000E+00  0.2000E+01
    -28.786  0.0000E+00  0.2000E+01
    -28.649  0.0000E+00  0.2000E+01
    -28.511  0.0000E+00  0.2000E+01
    -28.373  0.0000E+00  0.2000E+01
    -28.236  0.0000E+00  0.2000E+01
    -28.098  0.0000E+00  0.2000E+01
    -27.961  0.0000E+00  0.2000E+01
    -27.823  0.0000E+00  0.2000E+01
    -27.685  0.0000E+00  0.2000E+01
    -27.548  0.0000E+00  0.2000E+01
    -27.410  0.1453E+02  0.4000E+01
    -27.273  0.0000E+00  0.4000E+01
    -27.135  0.1453E+02  0.6000E+01
    -26.997  0.1453E+02  0.8000E+01
    -26.860  0.0000E+00  0.8000E+01
    -26.722  0.0000E+00  0.8000E+01
    -26.585  0.0000E+00  0.8000E+01
    -26.447  0.0000E+00  0.8000E+01
    -26.309  0.0000E+00  0.8000E+01
    -26.172  0.0000E+00  0.8000E+01
    -26.034  0.0000E+00  0.8000E+01
    -25.897  0.0000E+00  0.8000E+01
    -25.759  0.0000E+00  0.8000E+01
    -25.621  0.0000E+00  0.8000E+01
    -25.484  0.0000E+00  0.8000E+01
    -25.346  0.0000E+00  0.8000E+01
    -25.209  0.0000E+00  0.8000E+01
    -25.071  0.0000E+00  0.8000E+01
    -24.933  0.0000E+00  0.8000E+01
    -24.796  0.0000E+00  0.8000E+01
    -24.658  0.0000E+00  0.8000E+01
    -24.521  0.0000E+00  0.8000E+01
    -24.383  0.0000E+00  0.8000E+01
    -24.245  0.0000E+00  0.8000E+01
    -24.108  0.0000E+00  0.8000E+01
    -23.970  0.0000E+00  0.8000E+01
    -23.833  0.0000E+00  0.8000E+01
    -23.695  0.0000E+00  0.8000E+01
    -23.557  0.0000E+00  0.8000E+01
    -23.420  0.0000E+00  0.8000E+01
    -23.282  0.0000E+00  0.8000E+01
    -23.145  0.0000E+00  0.8000E+01
    -23.007  0.0000E+00  0.8000E+01
    -22.869  0.0000E+00  0.8000E+01
    -22.732  0.0000E+00  0.8000E+01
    -22.594  0.1679E+02  0.9124E+01
    -22.457  0.3634E+01  0.1000E+02
    -22.319  0.1662E+02  0.1190E+02
    -22.181  0.4489E+02  0.1561E+02
    -22.044  0.6284E+01  0.1607E+02
    -21.906  0.1134E+02  0.1749E+02
    -21.769  0.2385E+02  0.1947E+02
    -21.631  0.0000E+00  0.2000E+02
    -21.493  0.2863E+02  0.2187E+02
    -21.356  0.2857E+02  0.2545E+02
    -21.218  0.2680E+02  0.2825E+02
    -21.081  0.3827E+02  0.3155E+02
    -20.943  0.1453E+02  0.3400E+02
    -20.805  0.5038E+02  0.3746E+02
    -20.668  0.4870E+02  0.4022E+02
    -20.530  0.4254E+02  0.4406E+02
    -20.393  0.3894E+02  0.4750E+02
    -20.255  0.4741E+02  0.5130E+02
    -20.117  0.8426E+02  0.5843E+02
    -19.980  0.1817E+02  0.6200E+02
    -19.842  0.0000E+00  0.6200E+02
    -19.705  0.0000E+00  0.6200E+02
    -19.567  0.1804E+02  0.6300E+02
    -19.429  0.3964E+02  0.6487E+02
    -19.292  0.5786E+02  0.6785E+02
    -19.154  0.2301E+02  0.7200E+02
    -19.016  0.0000E+00  0.7200E+02
    -18.879  0.1000E+03  0.7508E+02
    -18.741  0.1002E+03  0.8227E+02
    -18.604  0.1233E+03  0.9284E+02
    -18.466  0.9690E+01  0.9600E+02
    -18.328  0.0000E+00  0.9600E+02
    -18.191  0.0000E+00  0.9600E+02
    -18.053  0.0000E+00  0.9600E+02
    -17.916  0.0000E+00  0.9600E+02
    -17.778  0.0000E+00  0.9600E+02
    -17.640  0.0000E+00  0.9600E+02
    -17.503  0.0000E+00  0.9600E+02
    -17.365  0.1453E+02  0.9800E+02
    -17.228  0.1453E+02  0.1000E+03
    -17.090  0.0000E+00  0.1000E+03
    -16.952  0.0000E+00  0.1000E+03
    -16.815  0.0000E+00  0.1000E+03
    -16.677  0.0000E+00  0.1000E+03
    -16.540  0.0000E+00  0.1000E+03
    -16.402  0.0000E+00  0.1000E+03
    -16.264  0.0000E+00  0.1000E+03
    -16.127  0.0000E+00  0.1000E+03
    -15.989  0.0000E+00  0.1000E+03
    -15.852  0.0000E+00  0.1000E+03
    -15.714  0.0000E+00  0.1000E+03
    -15.576  0.0000E+00  0.1000E+03
    -15.439  0.0000E+00  0.1000E+03
    -15.301  0.0000E+00  0.1000E+03
    -15.164  0.0000E+00  0.1000E+03
    -15.026  0.0000E+00  0.1000E+03
    -14.888  0.0000E+00  0.1000E+03
    -14.751  0.0000E+00  0.1000E+03
    -14.613  0.0000E+00  0.1000E+03
    -14.476  0.0000E+00  0.1000E+03
    -14.338  0.0000E+00  0.1000E+03
    -14.200  0.0000E+00  0.1000E+03
    -14.063  0.0000E+00  0.1000E+03
    -13.925  0.4360E+02  0.1060E+03
    -13.788  0.0000E+00  0.1060E+03
    -13.650  0.0000E+00  0.1060E+03
    -13.512  0.0000E+00  0.1060E+03
    -13.375  0.0000E+00  0.1060E+03
    -13.237  0.0000E+00  0.1060E+03
    -13.100  0.0000E+00  0.1060E+03
    -12.962  0.0000E+00  0.1060E+03
    -12.824  0.0000E+00  0.1060E+03
    -12.687  0.0000E+00  0.1060E+03
    -12.549  0.0000E+00  0.1060E+03
    -12.412  0.0000E+00  0.1060E+03
    -12.274  0.0000E+00  0.1060E+03
    -12.136  0.0000E+00  0.1060E+03
    -11.999  0.0000E+00  0.1060E+03
    -11.861  0.0000E+00  0.1060E+03
    -11.724  0.0000E+00  0.1060E+03
    -11.586  0.0000E+00  0.1060E+03
    -11.448  0.0000E+00  0.1060E+03
    -11.311  0.2907E+02  0.1100E+03
    -11.173  0.0000E+00  0.1100E+03
    -11.036  0.0000E+00  0.1100E+03
    -10.898  0.0000E+00  0.1100E+03
    -10.760  0.0000E+00  0.1100E+03
    -10.623  0.1453E+02  0.1120E+03
    -10.485  0.0000E+00  0.1120E+03
    -10.348  0.0000E+00  0.1120E+03
    -10.210  0.0000E+00  0.1120E+03
    -10.072  0.3573E+02  0.1135E+03
     -9.935  0.6114E+02  0.1176E+03
     -9.797  0.3753E+02  0.1215E+03
     -9.660  0.1330E+02  0.1240E+03
     -9.522  0.2870E+02  0.1265E+03
     -9.384  0.1276E+02  0.1286E+03
     -9.247  0.3732E+02  0.1320E+03
     -9.109  0.3934E+02  0.1360E+03
     -8.972  0.6338E+02  0.1406E+03
     -8.834  0.5606E+02  0.1458E+03
     -8.696  0.3100E+02  0.1495E+03
     -8.559  0.1145E+02  0.1518E+03
     -8.421  0.2690E+02  0.1537E+03
     -8.284  0.2649E+02  0.1565E+03
     -8.146  0.1957E+02  0.1593E+03
     -8.008  0.3717E+02  0.1625E+03
     -7.871  0.4544E+02  0.1667E+03
     -7.733  0.2680E+02  0.1708E+03
     -7.596  0.8459E+01  0.1722E+03
     -7.458  0.1955E+02  0.1741E+03
     -7.320  0.2254E+02  0.1775E+03
     -7.183  0.3833E+02  0.1811E+03
     -7.045  0.4756E+02  0.1855E+03
     -6.908  0.5206E+02  0.1901E+03
     -6.770  0.5760E+02  0.1947E+03
     -6.632  0.6614E+02  0.2000E+03
     -6.495  0.8302E+02  0.2073E+03
     -6.357  0.5353E+02  0.2123E+03
     -6.220  0.7855E+02  0.2184E+03
     -6.082  0.8172E+02  0.2247E+03
     -5.944  0.8797E+02  0.2305E+03
     -5.807  0.6400E+02  0.2361E+03
     -5.669  0.3315E+02  0.2401E+03
     -5.532  0.3598E+02  0.2462E+03
     -5.394  0.1061E+03  0.2512E+03
     -5.256  0.7545E+02  0.2577E+03
     -5.119  0.6831E+02  0.2637E+03
     -4.981  0.9632E+02  0.2703E+03
     -4.844  0.8375E+02  0.2768E+03
     -4.706  0.7686E+02  0.2858E+03
     -4.568  0.5513E+02  0.2921E+03
     -4.431  0.7150E+02  0.2978E+03
     -4.293  0.1436E+03  0.3035E+03
     -4.156  0.7477E+02  0.3105E+03
     -4.018  0.5626E+02  0.3161E+03
     -3.880  0.4036E+02  0.3186E+03
     -3.743  0.7403E+02  0.3223E+03
     -3.605  0.9013E+02  0.3303E+03
     -3.468  0.1218E+03  0.3385E+03
     -3.330  0.1278E+03  0.3481E+03
     -3.192  0.6821E+02  0.3580E+03
     -3.055  0.1050E+03  0.3679E+03
     -2.917  0.3057E+03  0.3768E+03
     -2.780  0.3499E+02  0.3811E+03
     -2.642  0.7554E+02  0.3865E+03
     -2.504  0.2663E+02  0.3898E+03
     -2.367  0.0000E+00  0.3900E+03
     -2.229  0.0000E+00  0.3900E+03
     -2.092  0.0000E+00  0.3900E+03
     -1.954  0.0000E+00  0.3900E+03
     -1.816  0.0000E+00  0.3900E+03
     -1.679  0.0000E+00  0.3900E+03
     -1.541  0.0000E+00  0.3900E+03
     -1.404  0.0000E+00  0.3900E+03
     -1.266  0.0000E+00  0.3900E+03
     -1.128  0.0000E+00  0.3900E+03
     -0.991  0.0000E+00  0.3900E+03
     -0.853  0.0000E+00  0.3900E+03
     -0.716  0.0000E+00  0.3900E+03
     -0.578  0.0000E+00  0.3900E+03
     -0.440  0.1453E+02  0.3920E+03
     -0.303  0.0000E+00  0.3920E+03
     -0.165  0.0000E+00  0.3920E+03
     -0.028  0.0000E+00  0.3920E+03
      0.110  0.0000E+00  0.3920E+03
      0.248  0.0000E+00  0.3920E+03
      0.385  0.0000E+00  0.3920E+03
      0.523  0.1288E+02  0.3921E+03
      0.660  0.8479E+01  0.3940E+03
      0.798  0.0000E+00  0.3940E+03
      0.936  0.1453E+02  0.3960E+03
      1.073  0.0000E+00  0.3960E+03
      1.211  0.0000E+00  0.3960E+03
      1.348  0.3243E+01  0.3961E+03
      1.486  0.8588E+01  0.3971E+03
      1.624  0.1924E+02  0.3997E+03
      1.761  0.0000E+00  0.4000E+03
      1.899  0.0000E+00  0.4000E+03
      2.036  0.2055E+01  0.4000E+03
      2.174  0.9557E+01  0.4009E+03
      2.312  0.3634E+01  0.4020E+03
      2.449  0.2038E+02  0.4025E+03
      2.587  0.1211E+01  0.4040E+03
      2.724  0.0000E+00  0.4040E+03
      2.862  0.1453E+02  0.4060E+03
      3.000  0.3256E+02  0.4079E+03
      3.137  0.0000E+00  0.4080E+03
      3.275  0.0000E+00  0.4080E+03
      3.412  0.1173E+02  0.4090E+03
      3.550  0.3634E+01  0.4100E+03
      3.688  0.0000E+00  0.4100E+03
      3.825  0.2209E+01  0.4101E+03
      3.963  0.6529E+01  0.4106E+03
      4.100  0.7052E+01  0.4115E+03
      4.238  0.9515E+00  0.4120E+03
      4.376  0.1919E+02  0.4131E+03
      4.513  0.1877E+01  0.4137E+03
      4.651  0.1272E+02  0.4153E+03
      4.788  0.1110E+02  0.4167E+03
      4.926  0.1287E+02  0.4180E+03
      5.064  0.1218E+02  0.4194E+03
      5.201  0.1980E+02  0.4213E+03
      5.339  0.2941E+02  0.4239E+03
      5.476  0.1771E+02  0.4262E+03
      5.614  0.2189E+02  0.4290E+03
      5.752  0.2808E+02  0.4317E+03
      5.889  0.3264E+02  0.4358E+03
      6.027  0.3357E+02  0.4392E+03
      6.164  0.2600E+02  0.4426E+03
      6.302  0.1968E+02  0.4455E+03
      6.440  0.1710E+02  0.4481E+03
      6.577  0.3301E+02  0.4513E+03
      6.715  0.9054E+01  0.4535E+03
      6.852  0.1231E+02  0.4553E+03
      6.990  0.1068E+01  0.4560E+03
      7.128  0.0000E+00  0.4560E+03
      7.265  0.0000E+00  0.4560E+03
      7.403  0.0000E+00  0.4560E+03
      7.540  0.0000E+00  0.4560E+03
      7.678  0.0000E+00  0.4560E+03
      7.816  0.0000E+00  0.4560E+03
      7.953  0.0000E+00  0.4560E+03
      8.091  0.0000E+00  0.4560E+03
      8.228  0.0000E+00  0.4560E+03
      8.366  0.0000E+00  0.4560E+03
      8.504  0.0000E+00  0.4560E+03
      8.641  0.0000E+00  0.4560E+03
      8.779  0.0000E+00  0.4560E+03
      8.916  0.0000E+00  0.4560E+03
