       N       E                     dE             d eps       ncg     rms          rms(c)
DAV:   1     0.356587840989E+04    0.35659E+04   -0.17483E+05  3248   0.143E+03
DAV:   2    -0.526799821640E+01   -0.35711E+04   -0.34765E+04  4296   0.355E+02
DAV:   3    -0.524003410551E+03   -0.51874E+03   -0.51138E+03  3672   0.141E+02
DAV:   4    -0.539187187169E+03   -0.15184E+02   -0.15097E+02  3792   0.266E+01
DAV:   5    -0.539693487102E+03   -0.50630E+00   -0.50621E+00  4104   0.416E+00    0.496E+01
RMM:   6    -0.499034013712E+03    0.40659E+02   -0.27214E+02  3528   0.308E+01    0.374E+01
RMM:   7    -0.484534833449E+03    0.14499E+02   -0.45480E+01  3536   0.125E+01    0.203E+01
RMM:   8    -0.483917990268E+03    0.61684E+00   -0.10369E+01  3574   0.617E+00    0.375E+01
RMM:   9    -0.481037706577E+03    0.28803E+01   -0.54937E+00  3608   0.417E+00    0.155E+01
RMM:  10    -0.485252540761E+03   -0.42148E+01   -0.65523E+00  3864   0.409E+00    0.249E+01
RMM:  11    -0.481881585101E+03    0.33710E+01   -0.25251E+00  3675   0.276E+00    0.200E+01
RMM:  12    -0.480084946661E+03    0.17966E+01   -0.13632E+00  3789   0.189E+00    0.121E+01
RMM:  13    -0.480623333601E+03   -0.53839E+00   -0.14533E+00  3968   0.191E+00    0.143E+01
RMM:  14    -0.479880512161E+03    0.74282E+00   -0.15187E+00  4061   0.193E+00    0.152E+01
RMM:  15    -0.479371922674E+03    0.50859E+00   -0.76994E-01  3903   0.139E+00    0.117E+01
RMM:  16    -0.479057724749E+03    0.31420E+00   -0.34366E-01  3748   0.108E+00    0.969E+00
RMM:  17    -0.478960731630E+03    0.96993E-01   -0.84932E-02  3654   0.700E-01    0.886E+00
RMM:  18    -0.478681303441E+03    0.27943E+00   -0.64038E-02  3729   0.538E-01    0.371E+00
RMM:  19    -0.478737593365E+03   -0.56290E-01   -0.51933E-02  3891   0.413E-01    0.614E+00
RMM:  20    -0.478636170127E+03    0.10142E+00   -0.22412E-02  3693   0.303E-01    0.493E+00
RMM:  21    -0.478590143842E+03    0.46026E-01   -0.56204E-02  4284   0.363E-01    0.426E+00
RMM:  22    -0.478563832665E+03    0.26311E-01   -0.51097E-02  4201   0.393E-01    0.463E+00
RMM:  23    -0.478521368287E+03    0.42464E-01   -0.26064E-02  3970   0.326E-01    0.303E+00
RMM:  24    -0.478509255408E+03    0.12113E-01   -0.69289E-03  3680   0.184E-01    0.216E+00
RMM:  25    -0.478500306854E+03    0.89486E-02   -0.70996E-03  3807   0.156E-01    0.198E+00
RMM:  26    -0.478500782973E+03   -0.47612E-03   -0.13117E-02  4114   0.190E-01    0.218E+00
RMM:  27    -0.478486212257E+03    0.14571E-01   -0.90245E-03  4013   0.182E-01    0.129E+00
RMM:  28    -0.478483294486E+03    0.29178E-02   -0.35412E-03  3821   0.126E-01    0.928E-01
RMM:  29    -0.478482483219E+03    0.81127E-03   -0.34392E-03  3999   0.106E-01    0.224E+00
RMM:  30    -0.478475211479E+03    0.72717E-02   -0.57220E-03  4207   0.125E-01    0.193E+00
RMM:  31    -0.478463504288E+03    0.11707E-01   -0.36640E-03  4038   0.140E-01    0.639E-01
RMM:  32    -0.478459166586E+03    0.43377E-02   -0.46343E-03  4210   0.111E-01    0.121E+00
RMM:  33    -0.478451160956E+03    0.80056E-02   -0.39802E-03  4235   0.104E-01    0.148E+00
RMM:  34    -0.478441653678E+03    0.95073E-02   -0.30990E-03  4146   0.901E-02    0.711E-01
RMM:  35    -0.478437941295E+03    0.37124E-02   -0.48341E-03  4623   0.105E-01    0.945E-01
RMM:  36    -0.478430738332E+03    0.72030E-02   -0.56793E-03  4817   0.118E-01    0.105E+00
RMM:  37    -0.478425060684E+03    0.56776E-02   -0.48110E-03  4771   0.997E-02    0.807E-01
RMM:  38    -0.478425670225E+03   -0.60954E-03   -0.15156E-03  4099   0.908E-02    0.554E-01
RMM:  39    -0.478425481174E+03    0.18905E-03   -0.10764E-03  4063   0.511E-02    0.319E-01
RMM:  40    -0.478428794387E+03   -0.33132E-02   -0.93588E-04  4151   0.519E-02    0.201E-01
RMM:  41    -0.478431748348E+03   -0.29540E-02   -0.41514E-04  3922   0.361E-02    0.228E-01
RMM:  42    -0.478434903859E+03   -0.31555E-02   -0.44930E-04  4032   0.331E-02    0.369E-01
RMM:  43    -0.478436716439E+03   -0.18126E-02   -0.35573E-04  3999   0.280E-02    0.162E-01
RMM:  44    -0.478437938970E+03   -0.12225E-02   -0.30905E-04  4043   0.248E-02    0.214E-01
RMM:  45    -0.478438607228E+03   -0.66826E-03   -0.14784E-04  3892   0.185E-02    0.171E-01
RMM:  46    -0.478439062530E+03   -0.45530E-03   -0.60105E-05  3574   0.124E-02    0.120E-01
RMM:  47    -0.478439628132E+03   -0.56560E-03   -0.53050E-05  3744   0.124E-02    0.623E-02
RMM:  48    -0.478440172987E+03   -0.54485E-03   -0.47443E-05  3816   0.962E-03    0.229E-02
RMM:  49    -0.478440475677E+03   -0.30269E-03   -0.30635E-05  3686   0.749E-03    0.280E-02
RMM:  50    -0.478440553628E+03   -0.77950E-04   -0.10732E-05  3163   0.493E-03    0.289E-02
RMM:  51    -0.478440590057E+03   -0.36429E-04   -0.65586E-06  2921   0.352E-03    0.846E-03
RMM:  52    -0.478440607135E+03   -0.17078E-04   -0.21290E-06  2238   0.189E-03    0.468E-03
RMM:  53    -0.478440618253E+03   -0.11118E-04   -0.14031E-06  2209   0.140E-03    0.370E-03
RMM:  54    -0.478440626219E+03   -0.79658E-05   -0.74654E-07  1874   0.947E-04    0.182E-03
RMM:  55    -0.478440630290E+03   -0.40716E-05   -0.45620E-07  1799   0.781E-04    0.124E-03
RMM:  56    -0.478440631958E+03   -0.16681E-05   -0.25195E-07  1363   0.573E-04    0.528E-04
RMM:  57    -0.478440632435E+03   -0.47654E-06   -0.13767E-07  1205   0.500E-04
   1 F= -.47844063E+03 E0= -.47844063E+03  d E =0.000000E+00
