 vasp.6.3.2 27Jun22 (build Mar 15 2023 15:45:48) complex                        
  
 executed on             LinuxIFC date 2024.07.25  09:11:25
 running on    4 total cores
 distrk:  each k-point on    4 cores,    1 groups
 distr:  one band on NCORE=   1 cores,    4 groups


--------------------------------------------------------------------------------------------------------


 INCAR:
   SYSTEM = ni3al
   PREC = Accurate
   EDIFF = 1E-6
   EDIFFG = -1E-2
   ISTART = 0
   ICHARG = 2
   LREAL = Auto
   NSW = 0
   ISIF = 2
   IBRION = -1
   ISMEAR = -5
   SIGMA = 0.1
   ENCUT = 530
   ALGO = Fast
   LMAXMIX = 4
   AMIN = 0.01
   NELM = 150
   LCHARG = .F.
   LWAVE = .T.
   NCORE = 4
   KPAR = 1
   LELF = .T.

 POTCAR:    PAW_PBE O 08Apr2002                   
 POTCAR:    PAW_PBE F 08Apr2002                   
 POTCAR:    PAW_PBE Al 04Jan2001                  
 POTCAR:    PAW_PBE K_sv 06Sep2000                
 POTCAR:    PAW_PBE O 08Apr2002                   
   VRHFIN =O: s2p4                                                                                  
   LEXCH  = PE                                                                                      
   EATOM  =   432.3788 eV,   31.7789 Ry                                                             
                                                                                                    
   TITEL  = PAW_PBE O 08Apr2002                                                                     
   LULTRA =        F    use ultrasoft PP ?                                                          
   IUNSCR =        1    unscreen: 0-lin 1-nonlin 2-no                                               
   RPACOR =    1.200    partial core radius                                                         
   POMASS =   16.000; ZVAL   =    6.000    mass and valenz                                          
   RCORE  =    1.520    outmost cutoff radius                                                       
   RWIGS  =    1.550; RWIGS  =    0.820    wigner-seitz radius (au A)                               
   ENMAX  =  400.000; ENMIN  =  300.000 eV                                                          
   ICORE  =        2    local potential                                                             
   LCOR   =        T    correct aug charges                                                         
   LPAW   =        T    paw PP                                                                      
   EAUG   =  605.392                                                                                
   DEXC   =    0.000                                                                                
   RMAX   =    1.553    core radius for proj-oper                                                   
   RAUG   =    1.300    factor for augmentation sphere                                              
   RDEP   =    1.550    radius for radial grids                                                     
   RDEPT  =    1.329    core radius for aug-charge                                                  
                                                                                                    
   Atomic configuration                                                                             
    4 entries                                                                                       
     n  l   j            E        occ.                                                              
     1  0  0.50      -514.6923   2.0000                                                             
     2  0  0.50       -23.9615   2.0000                                                             
     2  1  0.50        -9.0305   4.0000                                                             
     3  2  1.50        -9.5241   0.0000                                                             
   Description                                                                                      
     l       E           TYP  RCUT    TYP  RCUT                                                     
     0    -23.9615318     23  1.200                                                                 
     0     -9.5240782     23  1.200                                                                 
     1     -9.0304911     23  1.520                                                                 
     1      8.1634956     23  1.520                                                                 
     2     -9.5240782      7  1.500                                                                 
  local pseudopotential read in
  partial core-charges read in
  partial kinetic energy density read in
  kinetic energy density of atom read in
  atomic valenz-charges read in
  non local Contribution for L=           0  read in
    real space projection operators read in
  non local Contribution for L=           0  read in
    real space projection operators read in
  non local Contribution for L=           1  read in
    real space projection operators read in
  non local Contribution for L=           1  read in
    real space projection operators read in
    PAW grid and wavefunctions read in
 
   number of l-projection  operators is LMAX  =           4
   number of lm-projection operators is LMMAX =           8
 
 POTCAR:    PAW_PBE F 08Apr2002                   
   VRHFIN =F: s2p5                                                                                  
   LEXCH  = PE                                                                                      
   EATOM  =   659.6475 eV,   48.4827 Ry                                                             
                                                                                                    
   TITEL  = PAW_PBE F 08Apr2002                                                                     
   LULTRA =        F    use ultrasoft PP ?                                                          
   IUNSCR =        1    unscreen: 0-lin 1-nonlin 2-no                                               
   RPACOR =    1.200    partial core radius                                                         
   POMASS =   18.998; ZVAL   =    7.000    mass and valenz                                          
   RCORE  =    1.520    outmost cutoff radius                                                       
   RWIGS  =    1.500; RWIGS  =    0.794    wigner-seitz radius (au A)                               
   ENMAX  =  400.000; ENMIN  =  300.000 eV                                                          
   ICORE  =        2    local potential                                                             
   LCOR   =        T    correct aug charges                                                         
   LPAW   =        T    paw PP                                                                      
   EAUG   =  613.614                                                                                
   RMAX   =    1.555    core radius for proj-oper                                                   
   RAUG   =    1.300    factor for augmentation sphere                                              
   RDEP   =    1.539    radius for radial grids                                                     
   RDEPT  =    1.299    core radius for aug-charge                                                  
                                                                                                    
   Atomic configuration                                                                             
    4 entries                                                                                       
     n  l   j            E        occ.                                                              
     1  0  0.50      -663.3661   2.0000                                                             
     2  0  0.50       -29.8995   2.0000                                                             
     2  1  0.50       -11.1114   5.0000                                                             
     3  2  1.50       -10.8847   0.0000                                                             
   Description                                                                                      
     l       E           TYP  RCUT    TYP  RCUT                                                     
     0    -29.8995018     23  1.200                                                                 
     0     -9.5240782     23  1.200                                                                 
     1    -11.1113914     23  1.520                                                                 
     1      1.3605826     23  1.520                                                                 
     2    -10.8846608      7  1.500                                                                 
  local pseudopotential read in
  partial core-charges read in
  partial kinetic energy density read in
  atomic valenz-charges read in
  non local Contribution for L=           0  read in
    real space projection operators read in
  non local Contribution for L=           0  read in
    real space projection operators read in
  non local Contribution for L=           1  read in
    real space projection operators read in
  non local Contribution for L=           1  read in
    real space projection operators read in
    PAW grid and wavefunctions read in
 
   number of l-projection  operators is LMAX  =           4
   number of lm-projection operators is LMMAX =           8
 
 POTCAR:    PAW_PBE Al 04Jan2001                  
   VRHFIN =Al: s2p1                                                                                 
   LEXCH  = PE                                                                                      
   EATOM  =    53.5387 eV,    3.9350 Ry                                                             
                                                                                                    
   TITEL  = PAW_PBE Al 04Jan2001                                                                    
   LULTRA =        F    use ultrasoft PP ?                                                          
   IUNSCR =        1    unscreen: 0-lin 1-nonlin 2-no                                               
   RPACOR =    1.500    partial core radius                                                         
   POMASS =   26.981; ZVAL   =    3.000    mass and valenz                                          
   RCORE  =    1.900    outmost cutoff radius                                                       
   RWIGS  =    2.650; RWIGS  =    1.402    wigner-seitz radius (au A)                               
   ENMAX  =  240.300; ENMIN  =  180.225 eV                                                          
   ICORE  =        2    local potential                                                             
   LCOR   =        T    correct aug charges                                                         
   LPAW   =        T    paw PP                                                                      
   EAUG   =  291.052                                                                                
   DEXC   =    0.000                                                                                
   RMAX   =    1.939    core radius for proj-oper                                                   
   RAUG   =    1.300    factor for augmentation sphere                                              
   RDEP   =    1.966    radius for radial grids                                                     
   RDEPT  =    1.856    core radius for aug-charge                                                  
                                                                                                    
   Atomic configuration                                                                             
    6 entries                                                                                       
     n  l   j            E        occ.                                                              
     1  0  0.50     -1511.1048   2.0000                                                             
     2  0  0.50      -108.1629   2.0000                                                             
     2  1  1.50       -69.6402   6.0000                                                             
     3  0  0.50        -7.7528   2.0000                                                             
     3  1  1.50        -2.7121   1.0000                                                             
     3  2  2.50        -2.7212   0.0000                                                             
   Description                                                                                      
     l       E           TYP  RCUT    TYP  RCUT                                                     
     0     -7.7528455     23  1.900                                                                 
     0     -3.3096929     23  1.900                                                                 
     1     -2.7120682     23  1.900                                                                 
     1     13.6058260     23  1.900                                                                 
     2     -2.7211652      7  1.900                                                                 
  local pseudopotential read in
  partial core-charges read in
  partial kinetic energy density read in
  atomic valenz-charges read in
  non local Contribution for L=           0  read in
    real space projection operators read in
  non local Contribution for L=           0  read in
    real space projection operators read in
  non local Contribution for L=           1  read in
    real space projection operators read in
  non local Contribution for L=           1  read in
    real space projection operators read in
    PAW grid and wavefunctions read in
 
   number of l-projection  operators is LMAX  =           4
   number of lm-projection operators is LMMAX =           8
 
 POTCAR:    PAW_PBE K_sv 06Sep2000                
   VRHFIN =K:  3s3p4s                                                                               
   LEXCH  = PE                                                                                      
   EATOM  =   775.0067 eV,   56.9614 Ry                                                             
                                                                                                    
   TITEL  = PAW_PBE K_sv 06Sep2000                                                                  
   LULTRA =        F    use ultrasoft PP ?                                                          
   IUNSCR =        1    unscreen: 0-lin 1-nonlin 2-no                                               
   RPACOR =    2.200    partial core radius                                                         
   POMASS =   39.098; ZVAL   =    9.000    mass and valenz                                          
   RCORE  =    2.300    outmost cutoff radius                                                       
   RWIGS  =    3.000; RWIGS  =    1.588    wigner-seitz radius (au A)                               
   ENMAX  =  259.264; ENMIN  =  194.448 eV                                                          
   RCLOC  =    2.005    cutoff for local pot                                                        
   LCOR   =        T    correct aug charges                                                         
   LPAW   =        T    paw PP                                                                      
   EAUG   =  427.853                                                                                
   DEXC   =    0.000                                                                                
   RMAX   =    2.358    core radius for proj-oper                                                   
   RAUG   =    1.300    factor for augmentation sphere                                              
   RDEP   =    2.372    radius for radial grids                                                     
   RDEPT  =    2.002    core radius for aug-charge                                                  
                                                                                                    
   Atomic configuration                                                                             
    7 entries                                                                                       
     n  l   j            E        occ.                                                              
     1  0  0.50     -3522.0595   2.0000                                                             
     2  0  0.50      -353.3851   2.0000                                                             
     2  1  1.50      -280.0935   6.0000                                                             
     3  0  0.50       -35.3419   2.0000                                                             
     4  0  0.50        -2.3190   1.0000                                                             
     3  1  1.50       -18.8125   6.0000                                                             
     3  2  1.50        -1.3606   0.0000                                                             
   Description                                                                                      
     l       E           TYP  RCUT    TYP  RCUT                                                     
     0    -35.3418873     23  2.300                                                                 
     0     -2.3190215     23  2.300                                                                 
     1    -18.8124623     23  2.300                                                                 
     1    -20.4087390     23  2.300                                                                 
     2     -1.3605826     23  2.300                                                                 
  local pseudopotential read in
  partial core-charges read in
  partial kinetic energy density read in
  atomic valenz-charges read in
  non local Contribution for L=           0  read in
    real space projection operators read in
  non local Contribution for L=           0  read in
    real space projection operators read in
  non local Contribution for L=           1  read in
    real space projection operators read in
  non local Contribution for L=           1  read in
    real space projection operators read in
  non local Contribution for L=           2  read in
    real space projection operators read in
    PAW grid and wavefunctions read in
 
   number of l-projection  operators is LMAX  =           5
   number of lm-projection operators is LMMAX =          13
 
 Optimization of the real space projectors (new method)

 maximal supplied QI-value         = 24.76
 optimisation between [QCUT,QGAM] = [ 11.64, 23.52] = [ 37.91,154.88] Ry 
 Optimized for a Real-space Cutoff    1.16 Angstroem

   l    n(q)    QCUT    max X(q) W(low)/X(q) W(high)/X(q)  e(spline) 
   0      8    11.635    20.381    0.63E-04    0.20E-03    0.27E-06
   0      8    11.635    15.268    0.67E-04    0.21E-03    0.29E-06
   1      8    11.635     5.964    0.19E-03    0.13E-03    0.31E-06
   1      8    11.635     5.382    0.18E-03    0.10E-03    0.27E-06
 Optimization of the real space projectors (new method)

 maximal supplied QI-value         = 24.76
 optimisation between [QCUT,QGAM] = [ 11.64, 23.52] = [ 37.91,154.88] Ry 
 Optimized for a Real-space Cutoff    1.10 Angstroem

   l    n(q)    QCUT    max X(q) W(low)/X(q) W(high)/X(q)  e(spline) 
   0      8    11.635    14.049    0.72E-04    0.20E-03    0.15E-06
   0      8    11.635     8.945    0.85E-04    0.26E-03    0.20E-06
   1      7    11.635     7.086    0.25E-03    0.28E-03    0.25E-06
   1      7    11.635     6.747    0.23E-03    0.23E-03    0.23E-06
 Optimization of the real space projectors (new method)

 maximal supplied QI-value         = 19.84
 optimisation between [QCUT,QGAM] = [ 11.71, 23.41] = [ 38.38,153.51] Ry 
 Optimized for a Real-space Cutoff    1.20 Angstroem

   l    n(q)    QCUT    max X(q) W(low)/X(q) W(high)/X(q)  e(spline) 
   0      8    11.707   176.870    0.56E-04    0.14E-03    0.47E-07
   0      8    11.707   105.762    0.55E-04    0.13E-03    0.46E-07
   1      8    11.707    55.370    0.15E-03    0.19E-04    0.75E-07
   1      8    11.707    20.208    0.14E-03    0.15E-04    0.69E-07
 Optimization of the real space projectors (new method)

 maximal supplied QI-value         = 16.25
 optimisation between [QCUT,QGAM] = [ 11.70, 23.56] = [ 38.34,155.50] Ry 
 Optimized for a Real-space Cutoff    1.35 Angstroem

   l    n(q)    QCUT    max X(q) W(low)/X(q) W(high)/X(q)  e(spline) 
   0     10    11.701    11.234    0.18E-04    0.29E-04    0.22E-07
   0     10    11.701    12.505    0.24E-04    0.57E-04    0.47E-07
   1      9    11.701   167.359    0.12E-03    0.49E-03    0.44E-06
   1      9    11.701   168.875    0.12E-03    0.49E-03    0.44E-06
   2      9    11.701     3.435    0.48E-04    0.68E-04    0.36E-07
  PAW_PBE O 08Apr2002                   :
 energy of atom  1       EATOM= -432.3788
 kinetic energy error for atom=    0.0203 (will be added to EATOM!!)
  PAW_PBE F 08Apr2002                   :
 energy of atom  2       EATOM= -659.6475
 kinetic energy error for atom=    0.0313 (will be added to EATOM!!)
  PAW_PBE Al 04Jan2001                  :
 energy of atom  3       EATOM=  -53.5387
 kinetic energy error for atom=    0.0002 (will be added to EATOM!!)
  PAW_PBE K_sv 06Sep2000                :
 energy of atom  4       EATOM= -775.0067
 kinetic energy error for atom=    0.0012 (will be added to EATOM!!)
 
 
 POSCAR: SCAR
  positions in direct lattice
  velocities in cartesian coordinates
 exchange correlation table for  LEXCH =        8
   RHO(1)=    0.500       N(1)  =     2000
   RHO(2)=  100.500       N(2)  =     4000

 VTST: version 4.2, (08/11/21)

 CHAIN: initializing optimizer
 
 OPT: Using VASP Dynamics algorithm
 CHAIN: Read ICHAIN            0
 
 POSCAR: SCAR
  positions in direct lattice
  velocities in cartesian coordinates
 


--------------------------------------------------------------------------------------------------------


 ion  position               nearest neighbor table
   1  0.173  0.986  0.000-  54 1.87  53 1.99
   2  0.423  0.486  0.000-  55 1.87  64 1.99
   3  0.097  0.500  0.101-  50 1.87  52 1.87  61 1.99  55 1.99
   4  0.347  0.000  0.101-  51 1.87  53 1.87  72 1.99  66 1.99
   5  0.153  0.333  0.000-  55 1.87  52 1.99
   6  0.403  0.833  0.000-  66 1.87  53 1.99
   7  0.173  0.680  0.000-  55 1.87  53 1.99
   8  0.423  0.180  0.000-  66 1.87  64 1.99
   9  0.077  0.153  0.101-  51 1.87  52 1.87  60 1.99  54 1.99
  10  0.327  0.653  0.101-  62 1.87  53 1.87  61 1.99  55 1.99
  11  0.077  0.847  0.101-  53 1.87  50 1.87  60 1.99  54 1.99
  12  0.327  0.347  0.101-  64 1.87  51 1.87  61 1.99  55 1.99
  13  0.173  0.320  0.203-  58 1.87  61 1.87  57 1.99  51 1.99
  14  0.423  0.820  0.203-  59 1.87  72 1.87  68 1.99  62 1.99
  15  0.112  0.835  0.305-  22 1.44  59 1.90  56 1.97
  16  0.371  0.290  0.303-  57 1.76  70 1.84  74 2.68
  17  0.153  0.667  0.203-  59 1.87  61 1.87  56 1.99  50 1.99
  18  0.403  0.167  0.203-  70 1.87  72 1.87  57 1.99  51 1.99
  19  0.173  0.014  0.203-  60 1.87  59 1.87  57 1.99  51 1.99
  20  0.423  0.514  0.203-  61 1.87  70 1.87  68 1.99  62 1.99
  21  0.065  0.483  0.301-  56 1.82  58 1.88  74 2.64
  22  0.045  0.982  0.324-  23 1.40  15 1.44
  23  0.151  0.096  0.330-  22 1.40  57 1.80
  24  0.343  0.722  0.302-  68 1.78  59 1.83  74 2.72
  25  0.673  0.986  0.000-  66 1.87  65 1.99
  26  0.923  0.486  0.000-  67 1.87  52 1.99
  27  0.597  0.500  0.101-  62 1.87  64 1.87  73 1.99  67 1.99
  28  0.847  0.000  0.101-  63 1.87  65 1.87  60 1.99  54 1.99
  29  0.653  0.333  0.000-  67 1.87  64 1.99
  30  0.903  0.833  0.000-  54 1.87  65 1.99
  31  0.673  0.680  0.000-  67 1.87  65 1.99
  32  0.923  0.180  0.000-  54 1.87  52 1.99
  33  0.577  0.153  0.101-  63 1.87  64 1.87  72 1.99  66 1.99
  34  0.827  0.653  0.101-  50 1.87  65 1.87  73 1.99  67 1.99
  35  0.577  0.847  0.101-  65 1.87  62 1.87  72 1.99  66 1.99
  36  0.827  0.347  0.101-  52 1.87  63 1.87  73 1.99  67 1.99
  37  0.673  0.320  0.203-  70 1.87  73 1.87  69 1.99  63 1.99
  38  0.923  0.820  0.203-  71 1.87  60 1.87  56 1.99  50 1.99
  39  0.609  0.838  0.304-  46 1.45  71 1.91  68 1.96
  40  0.887  0.261  0.305-  69 1.76  58 1.83
  41  0.653  0.667  0.203-  71 1.87  73 1.87  68 1.99  62 1.99
  42  0.903  0.167  0.203-  58 1.87  60 1.87  69 1.99  63 1.99
  43  0.673  0.014  0.203-  72 1.87  71 1.87  69 1.99  63 1.99
  44  0.923  0.514  0.203-  58 1.87  73 1.87  56 1.99  50 1.99
  45  0.595  0.490  0.299-  49 1.46  68 1.88  70 2.01
  46  0.532  0.984  0.319-  47 1.40  39 1.45
  47  0.627  0.110  0.325-  46 1.40  69 1.81
  48  0.848  0.747  0.303-  71 1.77  56 1.80
  49  0.559  0.476  0.365-  45 1.46
  50  0.000  0.667  0.141-  34 1.87   3 1.87  11 1.87  17 1.99  44 1.99  38 1.99  56 2.68  60 2.82
                            61 2.82  73 2.82  65 3.25  53 3.25  52 3.25
  51  0.250  0.167  0.141-   9 1.87  12 1.87   4 1.87  19 1.99  13 1.99  18 1.99  57 2.68  61 2.82
                            60 2.82  72 2.82  64 3.25  52 3.25  53 3.25
  52  0.000  0.333  0.062-  36 1.87   3 1.87   9 1.87  26 1.99  32 1.99   5 1.99  54 2.82  55 2.82
                            67 2.82  63 3.25  51 3.25  50 3.25
  53  0.250  0.833  0.062-  11 1.87  10 1.87   4 1.87   7 1.99   1 1.99   6 1.99  55 2.82  54 2.82
                            66 2.82  62 3.25  50 3.25  51 3.25
  54  0.000  0.000  0.039-  32 1.87   1 1.87  30 1.87  28 1.99  11 1.99   9 1.99  60 2.68  52 2.82
                            53 2.82  65 2.82
  55  0.250  0.500  0.039-   2 1.87   5 1.87   7 1.87  10 1.99  12 1.99   3 1.99  61 2.68  53 2.82
                            52 2.82  64 2.82
  56  0.000  0.667  0.265-  48 1.80  21 1.82  15 1.97  17 1.99  44 1.99  38 1.99  50 2.68  59 2.82
                            71 2.82  58 2.82
  57  0.250  0.167  0.265-  16 1.76  23 1.80  19 1.99  13 1.99  18 1.99  51 2.68  58 2.82  70 2.82
                            59 2.82
  58  0.000  0.333  0.242-  40 1.83  42 1.87  13 1.87  44 1.87  21 1.88  57 2.82  69 2.82  56 2.82
                            60 3.25  61 3.25  73 3.25
  59  0.250  0.833  0.242-  24 1.83  14 1.87  17 1.87  19 1.87  15 1.90  56 2.82  68 2.82  57 2.82
                            61 3.25  60 3.25  72 3.25
  60  0.000  0.000  0.164-  38 1.87  19 1.87  42 1.87  28 1.99   9 1.99  11 1.99  54 2.68  50 2.82
                            51 2.82  63 2.82  58 3.25  59 3.25  71 3.25
  61  0.250  0.500  0.164-  13 1.87  20 1.87  17 1.87  12 1.99  10 1.99   3 1.99  55 2.68  51 2.82
                            50 2.82  62 2.82  59 3.25  58 3.25  70 3.25
  62  0.500  0.667  0.141-  10 1.87  35 1.87  27 1.87  20 1.99  14 1.99  41 1.99  68 2.68  72 2.82
                            61 2.82  73 2.82  65 3.25  53 3.25  64 3.25
  63  0.750  0.167  0.141-  33 1.87  36 1.87  28 1.87  43 1.99  37 1.99  42 1.99  69 2.68  73 2.82
                            72 2.82  60 2.82  64 3.25  52 3.25  65 3.25
  64  0.500  0.333  0.062-  12 1.87  33 1.87  27 1.87   2 1.99   8 1.99  29 1.99  66 2.82  55 2.82
                            67 2.82  51 3.25  63 3.25  62 3.25
  65  0.750  0.833  0.062-  35 1.87  34 1.87  28 1.87  25 1.99  31 1.99  30 1.99  67 2.82  66 2.82
                            54 2.82  50 3.25  62 3.25  63 3.25
  66  0.500  0.000  0.039-   8 1.87  25 1.87   6 1.87   4 1.99  33 1.99  35 1.99  72 2.68  64 2.82
                            65 2.82  53 2.82
  67  0.750  0.500  0.039-  31 1.87  26 1.87  29 1.87  27 1.99  34 1.99  36 1.99  73 2.68  65 2.82
                            52 2.82  64 2.82
  68  0.500  0.667  0.265-  24 1.78  45 1.88  39 1.96  20 1.99  14 1.99  41 1.99  62 2.68  59 2.82
                            71 2.82  70 2.82
  69  0.750  0.167  0.265-  40 1.76  47 1.81  43 1.99  37 1.99  42 1.99  63 2.68  58 2.82  70 2.82
                            71 2.82
  70  0.500  0.333  0.242-  16 1.84  18 1.87  37 1.87  20 1.87  45 2.01  57 2.82  69 2.82  68 2.82
                            72 3.25  61 3.25  73 3.25
  71  0.750  0.833  0.242-  48 1.77  41 1.87  38 1.87  43 1.87  39 1.91  56 2.82  68 2.82  69 2.82
                            73 3.25  72 3.25  60 3.25
  72  0.500  0.000  0.164-  14 1.87  43 1.87  18 1.87   4 1.99  35 1.99  33 1.99  66 2.68  62 2.82
                            63 2.82  51 2.82  70 3.25  59 3.25  71 3.25
  73  0.750  0.500  0.164-  37 1.87  44 1.87  41 1.87  27 1.99  36 1.99  34 1.99  67 2.68  63 2.82
                            50 2.82  62 2.82  71 3.25  70 3.25  58 3.25
  74  0.262  0.494  0.386-  21 2.64  16 2.68  24 2.72
 
  LATTYP: Found a simple orthorhombic cell.
 ALAT       =     8.3267490000
 B/A-ratio  =     1.1547005920
 C/A-ratio  =     2.5893165508
  
  Lattice vectors:
  
 A1 = (   0.0000000000,  -8.3267490000,   0.0000000000)
 A2 = (   9.6149020000,   0.0000000000,   0.0000000000)
 A3 = (   0.0000000000,   0.0000000000,  21.5605890000)


Analysis of symmetry for initial positions (statically):
=====================================================================
 Subroutine PRICEL returns:
 Original cell was already a primitive cell.
 

 Routine SETGRP: Setting up the symmetry group for a 
 simple orthorhombic supercell.


 Subroutine GETGRP returns: Found  1 space group operations
 (whereof  1 operations were pure point group operations)
 out of a pool of  8 trial point group operations.


The static configuration has the point symmetry C_1 .


Analysis of symmetry for dynamics (positions and initial velocities):
=====================================================================
 Subroutine PRICEL returns:
 Original cell was already a primitive cell.
 

 Routine SETGRP: Setting up the symmetry group for a 
 simple orthorhombic supercell.


 Subroutine GETGRP returns: Found  1 space group operations
 (whereof  1 operations were pure point group operations)
 out of a pool of  8 trial point group operations.


The dynamic configuration has the point symmetry C_1 .


Analysis of constrained symmetry for selective dynamics:
=====================================================================
 Subroutine PRICEL returns:
 Original cell was already a primitive cell.
 

 Routine SETGRP: Setting up the symmetry group for a 
 simple orthorhombic supercell.


 Subroutine GETGRP returns: Found  1 space group operations
 (whereof  1 operations were pure point group operations)
 out of a pool of  8 trial point group operations.


The constrained configuration has the point symmetry C_1 .


 Subroutine INISYM returns: Found  1 space group operations
 (whereof  1 operations are pure point group operations),
 and found     1 'primitive' translations


----------------------------------------------------------------------------------------

                                     Primitive cell                                     

  volume of cell :    1726.1596

  direct lattice vectors                    reciprocal lattice vectors
     9.614902000  0.000000000  0.000000000     0.104005220  0.000000000  0.000000000
     0.000000000  8.326749000  0.000000000     0.000000000  0.120094889  0.000000000
     0.000000000  0.000000000 21.560589000     0.000000000  0.000000000  0.046380922

  length of vectors
     9.614902000  8.326749000 21.560589000     0.104005220  0.120094889  0.046380922

  position of ions in fractional coordinates (direct lattice)
     0.173456000  0.986421000  0.000000000
     0.423456000  0.486421000  0.000000000
     0.096912000  0.500000000  0.101429000
     0.346913000  0.000000000  0.101429000
     0.153088000  0.333333000  0.000000000
     0.403088000  0.833333000  0.000000000
     0.173456000  0.680246000  0.000000000
     0.423456000  0.180245000  0.000000000
     0.076544000  0.153087000  0.101429000
     0.326544000  0.653087000  0.101429000
     0.076544000  0.846913000  0.101429000
     0.326544000  0.346913000  0.101429000
     0.173456000  0.319755000  0.202858000
     0.423456000  0.819755000  0.202858000
     0.111844123  0.835111090  0.305098334
     0.371458847  0.289624795  0.303026354
     0.153087000  0.666667000  0.202858000
     0.403088000  0.166667000  0.202858000
     0.173456000  0.013580000  0.202858000
     0.423456000  0.513580000  0.202858000
     0.064911855  0.483083381  0.300601062
     0.045367077  0.981504525  0.324382042
     0.150558237  0.096277306  0.330483565
     0.342617318  0.721849588  0.302435217
     0.673456000  0.986421000  0.000000000
     0.923456000  0.486421000  0.000000000
     0.596913000  0.500000000  0.101429000
     0.846913000  0.000000000  0.101429000
     0.653088000  0.333333000  0.000000000
     0.903088000  0.833333000  0.000000000
     0.673456000  0.680245000  0.000000000
     0.923456000  0.180245000  0.000000000
     0.576544000  0.153087000  0.101429000
     0.826544000  0.653087000  0.101429000
     0.576544000  0.846913000  0.101429000
     0.826544000  0.346913000  0.101429000
     0.673456000  0.319755000  0.202858000
     0.923456000  0.819755000  0.202858000
     0.608505287  0.838151811  0.304373708
     0.886976541  0.261089756  0.304652352
     0.653088000  0.666667000  0.202858000
     0.903088000  0.166667000  0.202858000
     0.673456000  0.013580000  0.202858000
     0.923456000  0.513579000  0.202858000
     0.594864200  0.489977268  0.299358671
     0.532483265  0.983536286  0.318819514
     0.627309093  0.110292463  0.324917610
     0.848437208  0.747168836  0.302902083
     0.559024809  0.476119101  0.365108935
     0.000000000  0.666667000  0.140706000
     0.250000000  0.166667000  0.140706000
     0.000000000  0.333333000  0.062152000
     0.250000000  0.833333000  0.062152000
     0.000000000  0.000000000  0.039277000
     0.250000000  0.500000000  0.039277000
     0.000000000  0.666667000  0.265009000
     0.250000000  0.166667000  0.265009000
     0.000000000  0.333333000  0.242134000
     0.250000000  0.833333000  0.242134000
     0.000000000  0.000000000  0.163581000
     0.250000000  0.500000000  0.163581000
     0.500000000  0.666667000  0.140706000
     0.750000000  0.166667000  0.140706000
     0.500000000  0.333333000  0.062152000
     0.750000000  0.833333000  0.062152000
     0.500000000  0.000000000  0.039277000
     0.750000000  0.500000000  0.039277000
     0.500000000  0.666667000  0.265009000
     0.750000000  0.166667000  0.265009000
     0.500000000  0.333333000  0.242134000
     0.750000000  0.833333000  0.242134000
     0.500000000  0.000000000  0.163581000
     0.750000000  0.500000000  0.163581000
     0.262025562  0.494295148  0.385697829

  ion indices of the primitive-cell ions
   primitive index   ion index
                 1           1
                 2           2
                 3           3
                 4           4
                 5           5
                 6           6
                 7           7
                 8           8
                 9           9
                10          10
                11          11
                12          12
                13          13
                14          14
                15          15
                16          16
                17          17
                18          18
                19          19
                20          20
                21          21
                22          22
                23          23
                24          24
                25          25
                26          26
                27          27
                28          28
                29          29
                30          30
                31          31
                32          32
                33          33
                34          34
                35          35
                36          36
                37          37
                38          38
                39          39
                40          40
                41          41
                42          42
                43          43
                44          44
                45          45
                46          46
                47          47
                48          48
                49          49
                50          50
                51          51
                52          52
                53          53
                54          54
                55          55
                56          56
                57          57
                58          58
                59          59
                60          60
                61          61
                62          62
                63          63
                64          64
                65          65
                66          66
                67          67
                68          68
                69          69
                70          70
                71          71
                72          72
                73          73
                74          74

----------------------------------------------------------------------------------------

 
 
 KPOINTS: K-Spacing Value to Generate K-Mesh: 0.03

Automatic generation of k-mesh.
 Grid dimensions read from file:
 generate k-points for:    3    4    1

 Generating k-lattice:

  Cartesian coordinates                     Fractional coordinates (reciprocal lattice)
     0.034668407  0.000000000  0.000000000     0.333333333  0.000000000  0.000000000
     0.000000000  0.030023722  0.000000000     0.000000000  0.250000000  0.000000000
     0.000000000  0.000000000  0.046380922     0.000000000  0.000000000  1.000000000

  Length of vectors
     0.034668407  0.030023722  0.046380922

  Shift w.r.t. Gamma in fractional coordinates (k-lattice)
     0.000000000  0.000000000  0.000000000

 TETIRR: Found     34 inequivalent tetrahedra from       72
 
 Subroutine IBZKPT returns following result:
 ===========================================
 
 Found      7 irreducible k-points:
 
 Following reciprocal coordinates:
            Coordinates               Weight
  0.000000  0.000000  0.000000      1.000000
  0.333333  0.000000  0.000000      2.000000
  0.000000  0.250000  0.000000      2.000000
  0.333333  0.250000  0.000000      2.000000
 -0.333333  0.250000  0.000000      2.000000
  0.000000  0.500000  0.000000      1.000000
  0.333333  0.500000  0.000000      2.000000
 
 Following cartesian coordinates:
            Coordinates               Weight
  0.000000  0.000000  0.000000      1.000000
  0.034668  0.000000  0.000000      2.000000
  0.000000  0.030024  0.000000      2.000000
  0.034668  0.030024  0.000000      2.000000
 -0.034668  0.030024  0.000000      2.000000
  0.000000  0.060047  0.000000      1.000000
  0.034668  0.060047  0.000000      2.000000
 


--------------------------------------------------------------------------------------------------------




 Dimension of arrays:
   k-points           NKPTS =      7   k-points in BZ     NKDIM =      7   number of bands    NBANDS=    228
   number of dos      NEDOS =    301   number of ions     NIONS =     74
   non local maximal  LDIM  =      5   non local SUM 2l+1 LMDIM =     13
   total plane-waves  NPLWV = 746496
   max r-space proj   IRMAX =   4505   max aug-charges    IRDMAX=  20326
   dimension x,y,z NGX =    72 NGY =   64 NGZ =  162
   dimension x,y,z NGXF=   144 NGYF=  128 NGZF=  324
   support grid    NGXF=   144 NGYF=  128 NGZF=  324
   ions per type =              48   1  24   1
   NGX,Y,Z   is equivalent  to a cutoff of  12.45, 12.78, 12.49 a.u.
   NGXF,Y,Z  is equivalent  to a cutoff of  24.90, 25.56, 24.98 a.u.

 SYSTEM =  ni3al                                   
 POSCAR =  SCAR                                    

 Startparameter for this run:
   NWRITE =      2    write-flag & timer
   PREC   = accura    normal or accurate (medium, high low for compatibility)
   ISTART =      0    job   : 0-new  1-cont  2-samecut
   ICHARG =      2    charge: 1-file 2-atom 10-const
   ISPIN  =      1    spin polarized calculation?
   LNONCOLLINEAR =      F non collinear calculations
   LSORBIT =      F    spin-orbit coupling
   INIWAV =      1    electr: 0-lowe 1-rand  2-diag
   LASPH  =      F    aspherical Exc in radial PAW
 Electronic Relaxation 1
   ENCUT  =  530.0 eV  38.95 Ry    6.24 a.u.  18.05 15.63 40.47*2*pi/ulx,y,z
   ENINI  =  530.0     initial cutoff
   ENAUG  =  613.6 eV  augmentation charge cutoff
   NELM   =    150;   NELMIN=  2; NELMDL= -5     # of ELM steps 
   EDIFF  = 0.1E-05   stopping-criterion for ELM
   LREAL  =      T    real-space projection
   NLSPLINE    = F    spline interpolate recip. space projectors
   LCOMPAT=      F    compatible to vasp.4.4
   GGA_COMPAT  = T    GGA compatible to vasp.4.4-vasp.4.6
   LMAXPAW     = -100 max onsite density
   LMAXMIX     =    4 max onsite mixed and CHGCAR
   VOSKOWN=      0    Vosko Wilk Nusair interpolation
   ROPT   =   -0.00025  -0.00025  -0.00025  -0.00025
 Ionic relaxation
   EDIFFG = -.1E-01   stopping-criterion for IOM
   NSW    =      0    number of steps for IOM
   NBLOCK =      1;   KBLOCK =      1    inner block; outer block 
   IBRION =     -1    ionic relax: 0-MD 1-quasi-New 2-CG
   NFREE  =      0    steps in history (QN), initial steepest desc. (CG)
   ISIF   =      2    stress and relaxation
   IWAVPR =     10    prediction:  0-non 1-charg 2-wave 3-comb
   ISYM   =      2    0-nonsym 1-usesym 2-fastsym
   LCORR  =      T    Harris-Foulkes like correction to forces

   POTIM  = 0.5000    time-step for ionic-motion
   TEIN   =    0.0    initial temperature
   TEBEG  =    0.0;   TEEND  =   0.0 temperature during run
   SMASS  =  -3.00    Nose mass-parameter (am)
   estimated Nose-frequenzy (Omega)   =  0.10E-29 period in steps = 0.13E+47 mass=  -0.211E-26a.u.
   SCALEE = 1.0000    scale energy and forces
   NPACO  =    256;   APACO  = 10.0  distance and # of slots for P.C.
   PSTRESS=    0.0 pullay stress

  Mass of Ions in am
   POMASS =  16.00 19.00 26.98 39.10
  Ionic Valenz
   ZVAL   =   6.00  7.00  3.00  9.00
  Atomic Wigner-Seitz radii
   RWIGS  =  -1.00 -1.00 -1.00 -1.00
  virtual crystal weights 
   VCA    =   1.00  1.00  1.00  1.00
   NELECT =     376.0000    total number of electrons
   NUPDOWN=      -1.0000    fix difference up-down

 DOS related values:
   EMIN   =  10.00;   EMAX   =-10.00  energy-range for DOS
   EFERMI =   0.00
   ISMEAR =    -5;   SIGMA  =   0.10  broadening in eV -4-tet -1-fermi 0-gaus

 Electronic relaxation 2 (details)
   IALGO  =     68    algorithm
   LDIAG  =      T    sub-space diagonalisation (order eigenvalues)
   LSUBROT=      F    optimize rotation matrix (better conditioning)
   TURBO    =      0    0=normal 1=particle mesh
   IRESTART =      0    0=no restart 2=restart with 2 vectors
   NREBOOT  =      0    no. of reboots
   NMIN     =      0    reboot dimension
   EREF     =   0.00    reference energy to select bands
   IMIX   =      4    mixing-type and parameters
     AMIX     =   0.40;   BMIX     =  1.00
     AMIX_MAG =   1.60;   BMIX_MAG =  1.00
     AMIN     =   0.01
     WC   =   100.;   INIMIX=   1;  MIXPRE=   1;  MAXMIX= -45

 Intra band minimization:
   WEIMIN = 0.0000     energy-eigenvalue tresh-hold
   EBREAK =  0.11E-08  absolut break condition
   DEPER  =   0.30     relativ break condition  

   TIME   =   0.40     timestep for ELM

  volume/ion in A,a.u.               =      23.33       157.41
  Fermi-wavevector in a.u.,A,eV,Ry     =   0.985017  1.861413 13.201172  0.970259
  Thomas-Fermi vector in A             =   2.116293
 
 Write flags
   LWAVE        =      T    write WAVECAR
   LDOWNSAMPLE  =      F    k-point downsampling of WAVECAR
   LCHARG       =      F    write CHGCAR
   LVTOT        =      F    write LOCPOT, total local potential
   LVHAR        =      F    write LOCPOT, Hartree potential only
   LELF         =      T    write electronic localiz. function (ELF)
   LORBIT       =      0    0 simple, 1 ext, 2 COOP (PROOUT), +10 PAW based schemes


 Dipole corrections
   LMONO  =      F    monopole corrections only (constant potential shift)
   LDIPOL =      F    correct potential (dipole corrections)
   IDIPOL =      0    1-x, 2-y, 3-z, 4-all directions 
   EPSILON=  1.0000000 bulk dielectric constant

 Exchange correlation treatment:
   GGA     =    --    GGA type
   LEXCH   =     8    internal setting for exchange type
   LIBXC   =     F    Libxc                    
   VOSKOWN =     0    Vosko Wilk Nusair interpolation
   LHFCALC =     F    Hartree Fock is set to
   LHFONE  =     F    Hartree Fock one center treatment
   AEXX    =    0.0000 exact exchange contribution

 Linear response parameters
   LEPSILON=     F    determine dielectric tensor
   LRPA    =     F    only Hartree local field effects (RPA)
   LNABLA  =     F    use nabla operator in PAW spheres
   LVEL    =     F    velocity operator in full k-point grid
   CSHIFT  =0.1000    complex shift for real part using Kramers Kronig
   OMEGAMAX=  -1.0    maximum frequency
   DEG_THRESHOLD= 0.2000000E-02 threshold for treating states as degnerate
   RTIME   =   -0.100 relaxation time in fs
  (WPLASMAI=    0.000 imaginary part of plasma frequency in eV, 0.658/RTIME)
   DFIELD  = 0.0000000 0.0000000 0.0000000 field for delta impulse in time
 
  Optional k-point grid parameters
   LKPOINTS_OPT  =     F    use optional k-point grid
   KPOINTS_OPT_MODE=     1    mode for optional k-point grid
 
 Orbital magnetization related:
   ORBITALMAG=     F  switch on orbital magnetization
   LCHIMAG   =     F  perturbation theory with respect to B field
   DQ        =  0.001000  dq finite difference perturbation B field
   LLRAUG    =     F  two centre corrections for induced B field



--------------------------------------------------------------------------------------------------------


 Static calculation
 charge density and potential will be updated during run
 non-spin polarized calculation
 RMM-DIIS sequential band-by-band and
  variant of blocked Davidson during initial phase
 perform sub-space diagonalisation
    before iterative eigenvector-optimisation
 modified Broyden-mixing scheme, WC =      100.0
 initial mixing is a Kerker type mixing with AMIX =  0.4000 and BMIX =      1.0000
 Hartree-type preconditioning will be used
 using additional bands           40
 real space projection scheme for non local part
 use partial core corrections
 calculate Harris-corrections to forces 
   (improved forces if not selfconsistent)
 use gradient corrections 
 use of overlap-Matrix (Vanderbilt PP)
 Fermi weights with tetrahedron method with Bloechl corrections


--------------------------------------------------------------------------------------------------------


  energy-cutoff  :      530.00
  volume of cell :     1726.16
      direct lattice vectors                 reciprocal lattice vectors
     9.614902000  0.000000000  0.000000000     0.104005220  0.000000000  0.000000000
     0.000000000  8.326749000  0.000000000     0.000000000  0.120094889  0.000000000
     0.000000000  0.000000000 21.560589000     0.000000000  0.000000000  0.046380922

  length of vectors
     9.614902000  8.326749000 21.560589000     0.104005220  0.120094889  0.046380922


 
 k-points in units of 2pi/SCALE and weight: K-Spacing Value to Generate K-Mesh: 0.03
   0.00000000  0.00000000  0.00000000       0.083
   0.03466841  0.00000000  0.00000000       0.167
   0.00000000  0.03002372  0.00000000       0.167
   0.03466841  0.03002372  0.00000000       0.167
  -0.03466841  0.03002372  0.00000000       0.167
   0.00000000  0.06004744  0.00000000       0.083
   0.03466841  0.06004744  0.00000000       0.167
 
 k-points in reciprocal lattice and weights: K-Spacing Value to Generate K-Mesh: 0.03
   0.00000000  0.00000000  0.00000000       0.083
   0.33333333  0.00000000  0.00000000       0.167
   0.00000000  0.25000000  0.00000000       0.167
   0.33333333  0.25000000  0.00000000       0.167
  -0.33333333  0.25000000  0.00000000       0.167
   0.00000000  0.50000000  0.00000000       0.083
   0.33333333  0.50000000  0.00000000       0.167
 
 position of ions in fractional coordinates (direct lattice) 
   0.17345600  0.98642100  0.00000000
   0.42345600  0.48642100  0.00000000
   0.09691200  0.50000000  0.10142900
   0.34691300  0.00000000  0.10142900
   0.15308800  0.33333300  0.00000000
   0.40308800  0.83333300  0.00000000
   0.17345600  0.68024600  0.00000000
   0.42345600  0.18024500  0.00000000
   0.07654400  0.15308700  0.10142900
   0.32654400  0.65308700  0.10142900
   0.07654400  0.84691300  0.10142900
   0.32654400  0.34691300  0.10142900
   0.17345600  0.31975500  0.20285800
   0.42345600  0.81975500  0.20285800
   0.11184412  0.83511109  0.30509833
   0.37145885  0.28962479  0.30302635
   0.15308700  0.66666700  0.20285800
   0.40308800  0.16666700  0.20285800
   0.17345600  0.01358000  0.20285800
   0.42345600  0.51358000  0.20285800
   0.06491186  0.48308338  0.30060106
   0.04536708  0.98150452  0.32438204
   0.15055824  0.09627731  0.33048357
   0.34261732  0.72184959  0.30243522
   0.67345600  0.98642100  0.00000000
   0.92345600  0.48642100  0.00000000
   0.59691300  0.50000000  0.10142900
   0.84691300  0.00000000  0.10142900
   0.65308800  0.33333300  0.00000000
   0.90308800  0.83333300  0.00000000
   0.67345600  0.68024500  0.00000000
   0.92345600  0.18024500  0.00000000
   0.57654400  0.15308700  0.10142900
   0.82654400  0.65308700  0.10142900
   0.57654400  0.84691300  0.10142900
   0.82654400  0.34691300  0.10142900
   0.67345600  0.31975500  0.20285800
   0.92345600  0.81975500  0.20285800
   0.60850529  0.83815181  0.30437371
   0.88697654  0.26108976  0.30465235
   0.65308800  0.66666700  0.20285800
   0.90308800  0.16666700  0.20285800
   0.67345600  0.01358000  0.20285800
   0.92345600  0.51357900  0.20285800
   0.59486420  0.48997727  0.29935867
   0.53248326  0.98353629  0.31881951
   0.62730909  0.11029246  0.32491761
   0.84843721  0.74716884  0.30290208
   0.55902481  0.47611910  0.36510893
   0.00000000  0.66666700  0.14070600
   0.25000000  0.16666700  0.14070600
   0.00000000  0.33333300  0.06215200
   0.25000000  0.83333300  0.06215200
   0.00000000  0.00000000  0.03927700
   0.25000000  0.50000000  0.03927700
   0.00000000  0.66666700  0.26500900
   0.25000000  0.16666700  0.26500900
   0.00000000  0.33333300  0.24213400
   0.25000000  0.83333300  0.24213400
   0.00000000  0.00000000  0.16358100
   0.25000000  0.50000000  0.16358100
   0.50000000  0.66666700  0.14070600
   0.75000000  0.16666700  0.14070600
   0.50000000  0.33333300  0.06215200
   0.75000000  0.83333300  0.06215200
   0.50000000  0.00000000  0.03927700
   0.75000000  0.50000000  0.03927700
   0.50000000  0.66666700  0.26500900
   0.75000000  0.16666700  0.26500900
   0.50000000  0.33333300  0.24213400
   0.75000000  0.83333300  0.24213400
   0.50000000  0.00000000  0.16358100
   0.75000000  0.50000000  0.16358100
   0.26202556  0.49429515  0.38569783
 
 position of ions in cartesian coordinates  (Angst):
   1.66776244  8.21368008  0.00000000
   4.07148794  4.05030558  0.00000000
   0.93179938  4.16337450  2.18686898
   3.33553450  0.00000000  2.18686898
   1.47192612  2.77558022  0.00000000
   3.87565162  6.93895472  0.00000000
   1.66776244  5.66423770  0.00000000
   4.07148794  1.50085487  0.00000000
   0.73596306  1.27471702  2.18686898
   3.13968856  5.43809152  2.18686898
   0.73596306  7.05203198  2.18686898
   3.13968856  2.88865748  2.18686898
   1.66776244  2.66251963  4.37373796
   4.07148794  6.82589413  4.37373796
   1.07537028  6.95376043  6.57809978
   3.57154041  2.41163297  6.53342668
   1.47191650  5.55116878  4.37373796
   3.87565162  1.38779428  4.37373796
   1.66776244  0.11307725  4.37373796
   4.07148794  4.27645175  4.37373796
   0.62412113  4.02251406  6.48113596
   0.43620000  8.17274182  6.99386789
   1.44760269  0.80167696  7.12542033
   3.29423193  6.01066034  6.52068140
   6.47521344  8.21368008  0.00000000
   8.87893894  4.05030558  0.00000000
   5.73926000  4.16337450  2.18686898
   8.14298550  0.00000000  2.18686898
   6.27937712  2.77558022  0.00000000
   8.68310262  6.93895472  0.00000000
   6.47521344  5.66422937  0.00000000
   8.87893894  1.50085487  0.00000000
   5.54341406  1.27471702  2.18686898
   7.94713956  5.43809152  2.18686898
   5.54341406  7.05203198  2.18686898
   7.94713956  2.88865748  2.18686898
   6.47521344  2.66251963  4.37373796
   8.87893894  6.82589413  4.37373796
   5.85071870  6.97907976  6.56247642
   8.52819251  2.17402886  6.56848414
   6.27937712  5.55116878  4.37373796
   8.68310262  1.38779428  4.37373796
   6.47521344  0.11307725  4.37373796
   8.87893894  4.27644342  4.37373796
   5.71956099  4.07991773  6.45434928
   5.11977441  8.18965979  6.87393650
   6.03151545  0.91837765  7.00541504
   8.15764060  6.22148736  6.53074732
   5.37496875  3.96452425  7.87196368
   0.00000000  5.55116878  3.03370424
   2.40372550  1.38779428  3.03370424
   0.00000000  2.77558022  1.34003373
   2.40372550  6.93895472  1.34003373
   0.00000000  0.00000000  0.84683525
   2.40372550  4.16337450  0.84683525
   0.00000000  5.55116878  5.71375013
   2.40372550  1.38779428  5.71375013
   0.00000000  2.77558022  5.22055166
   2.40372550  6.93895472  5.22055166
   0.00000000  0.00000000  3.52690271
   2.40372550  4.16337450  3.52690271
   4.80745100  5.55116878  3.03370424
   7.21117650  1.38779428  3.03370424
   4.80745100  2.77558022  1.34003373
   7.21117650  6.93895472  1.34003373
   4.80745100  0.00000000  0.84683525
   7.21117650  4.16337450  0.84683525
   4.80745100  5.55116878  5.71375013
   7.21117650  1.38779428  5.71375013
   4.80745100  2.77558022  5.22055166
   7.21117650  6.93895472  5.22055166
   4.80745100  0.00000000  3.52690271
   7.21117650  4.16337450  3.52690271
   2.51935010  4.11587163  8.31587236
 


--------------------------------------------------------------------------------------------------------


 k-point   1 :   0.0000 0.0000 0.0000  plane waves:   47839
 k-point   2 :   0.3333 0.0000 0.0000  plane waves:   47902
 k-point   3 :   0.0000 0.2500 0.0000  plane waves:   47799
 k-point   4 :   0.3333 0.2500 0.0000  plane waves:   47841
 k-point   5 :  -0.3333 0.2500 0.0000  plane waves:   47841
 k-point   6 :   0.0000 0.5000 0.0000  plane waves:   47844
 k-point   7 :   0.3333 0.5000 0.0000  plane waves:   47806

 maximum and minimum number of plane-waves per node :     47902    47799

 maximum number of plane-waves:     47902
 maximum index in each direction: 
   IXMAX=   18   IYMAX=   15   IZMAX=   40
   IXMIN=  -18   IYMIN=  -16   IZMIN=  -40


 serial   3D FFT for wavefunctions
 parallel 3D FFT for charge:
    minimum data exchange during FFTs selected (reduces bandwidth)


 total amount of memory used by VASP MPI-rank0   552320. kBytes
=======================================================================

   base      :      30000. kBytes
   nonlr-proj:      20775. kBytes
   fftplans  :      53351. kBytes
   grid      :     137945. kBytes
   one-center:        600. kBytes
   wavefun   :     309649. kBytes
 
     INWAV:  cpu time      0.0003: real time      0.0000
 Broyden mixing: mesh for mixing (old mesh)
   NGX = 37   NGY = 31   NGZ = 81
  (NGX  =144   NGY  =128   NGZ  =324)
  gives a total of  92907 points

 initial charge density was supplied:
 charge density of overlapping atoms calculated
 number of electron     376.0000000 magnetization 
 keeping initial charge density in first step


--------------------------------------------------------------------------------------------------------


 Maximum index for non-local projection operator         4333
 Maximum index for augmentation-charges         4911 (set IRDMAX)


--------------------------------------------------------------------------------------------------------


 First call to EWALD:  gamma=   0.148
 Maximum number of real-space cells 3x 4x 2
 Maximum number of reciprocal cells 2x 2x 5

    FEWALD:  cpu time      0.0139: real time      0.0069


--------------------------------------- Iteration      1(   1)  ---------------------------------------


    POTLOK:  cpu time      3.1740: real time      0.4560
    SETDIJ:  cpu time      0.2533: real time      0.0362
     EDDAV:  cpu time     43.0033: real time      6.1811
 BZINTS: Fermi energy:   12.706785;  376.000000 electrons
         Band energy:-0.678017E+03;  BLOECHL correction:   -0.001089
       DOS:  cpu time      0.1584: real time      0.0238
    --------------------------------------------
      LOOP:  cpu time     46.5894: real time      6.6972

 eigenvalue-minimisations  :  3248
 total energy-change (2. order) : 0.3565878E+04  (-0.1748287E+05)
 number of electron     376.0000000 magnetization 
 augmentation part      376.0000000 magnetization 

 Free energy of the ion-electron system (eV)
  ---------------------------------------------------
  alpha Z        PSCENC =       271.78674889
  Ewald energy   TEWEN  =     84073.05684624
  -Hartree energ DENC   =   -105037.23848467
  -exchange      EXHF   =         0.00000000
  -V(xc)+E(xc)   XCENC  =       783.02013843
  PAW double counting   =     19356.41094894   -18675.89497373
  entropy T*S    EENTRO =         0.00000000
  eigenvalues    EBANDS =      -678.01704468
  atomic energy  EATOM  =     23472.75423047
  Solvation  Ediel_sol  =         0.00000000
  ---------------------------------------------------
  free energy    TOTEN  =      3565.87840989 eV

  energy without entropy =     3565.87840989  energy(sigma->0) =     3565.87840989


--------------------------------------------------------------------------------------------------------




--------------------------------------- Iteration      1(   2)  ---------------------------------------


     EDDAV:  cpu time     53.0012: real time      7.5890
 BZINTS: Fermi energy:   -2.397146;  376.000000 electrons
         Band energy:-0.424916E+04;  BLOECHL correction:   -0.002589
       DOS:  cpu time      0.1155: real time      0.0165
    --------------------------------------------
      LOOP:  cpu time     53.1165: real time      7.6054

 eigenvalue-minimisations  :  4296
 total energy-change (2. order) :-0.3571146E+04  (-0.3476454E+04)
 number of electron     376.0000000 magnetization 
 augmentation part      376.0000000 magnetization 

 Free energy of the ion-electron system (eV)
  ---------------------------------------------------
  alpha Z        PSCENC =       271.78674889
  Ewald energy   TEWEN  =     84073.05684624
  -Hartree energ DENC   =   -105037.23848467
  -exchange      EXHF   =         0.00000000
  -V(xc)+E(xc)   XCENC  =       783.02013843
  PAW double counting   =     19356.41094894   -18675.89497373
  entropy T*S    EENTRO =         0.00000000
  eigenvalues    EBANDS =     -4249.16345279
  atomic energy  EATOM  =     23472.75423047
  Solvation  Ediel_sol  =         0.00000000
  ---------------------------------------------------
  free energy    TOTEN  =        -5.26799822 eV

  energy without entropy =       -5.26799822  energy(sigma->0) =       -5.26799822


--------------------------------------------------------------------------------------------------------




--------------------------------------- Iteration      1(   3)  ---------------------------------------


     EDDAV:  cpu time     46.7478: real time      6.6929
 BZINTS: Fermi energy:   -5.176155;  376.000000 electrons
         Band energy:-0.476790E+04;  BLOECHL correction:   -0.002955
       DOS:  cpu time      0.1144: real time      0.0163
    --------------------------------------------
      LOOP:  cpu time     46.8622: real time      6.7092

 eigenvalue-minimisations  :  3672
 total energy-change (2. order) :-0.5187354E+03  (-0.5113784E+03)
 number of electron     376.0000000 magnetization 
 augmentation part      376.0000000 magnetization 

 Free energy of the ion-electron system (eV)
  ---------------------------------------------------
  alpha Z        PSCENC =       271.78674889
  Ewald energy   TEWEN  =     84073.05684624
  -Hartree energ DENC   =   -105037.23848467
  -exchange      EXHF   =         0.00000000
  -V(xc)+E(xc)   XCENC  =       783.02013843
  PAW double counting   =     19356.41094894   -18675.89497373
  entropy T*S    EENTRO =         0.00000000
  eigenvalues    EBANDS =     -4767.89886512
  atomic energy  EATOM  =     23472.75423047
  Solvation  Ediel_sol  =         0.00000000
  ---------------------------------------------------
  free energy    TOTEN  =      -524.00341055 eV

  energy without entropy =     -524.00341055  energy(sigma->0) =     -524.00341055


--------------------------------------------------------------------------------------------------------




--------------------------------------- Iteration      1(   4)  ---------------------------------------


     EDDAV:  cpu time     48.9230: real time      7.0054
 BZINTS: Fermi energy:   -5.235933;  376.000000 electrons
         Band energy:-0.478308E+04;  BLOECHL correction:   -0.002494
       DOS:  cpu time      0.1127: real time      0.0161
    --------------------------------------------
      LOOP:  cpu time     49.0357: real time      7.0215

 eigenvalue-minimisations  :  3792
 total energy-change (2. order) :-0.1518378E+02  (-0.1509698E+02)
 number of electron     376.0000000 magnetization 
 augmentation part      376.0000000 magnetization 

 Free energy of the ion-electron system (eV)
  ---------------------------------------------------
  alpha Z        PSCENC =       271.78674889
  Ewald energy   TEWEN  =     84073.05684624
  -Hartree energ DENC   =   -105037.23848467
  -exchange      EXHF   =         0.00000000
  -V(xc)+E(xc)   XCENC  =       783.02013843
  PAW double counting   =     19356.41094894   -18675.89497373
  entropy T*S    EENTRO =         0.00000000
  eigenvalues    EBANDS =     -4783.08264174
  atomic energy  EATOM  =     23472.75423047
  Solvation  Ediel_sol  =         0.00000000
  ---------------------------------------------------
  free energy    TOTEN  =      -539.18718717 eV

  energy without entropy =     -539.18718717  energy(sigma->0) =     -539.18718717


--------------------------------------------------------------------------------------------------------




--------------------------------------- Iteration      1(   5)  ---------------------------------------


     EDDAV:  cpu time     51.3987: real time      7.3589
 BZINTS: Fermi energy:   -5.237724;  376.000000 electrons
         Band energy:-0.478359E+04;  BLOECHL correction:   -0.001711
       DOS:  cpu time      0.1181: real time      0.0169
    CHARGE:  cpu time      1.1083: real time      0.1586
    MIXING:  cpu time      0.1158: real time      0.0171
    --------------------------------------------
      LOOP:  cpu time     52.7415: real time      7.5515

 eigenvalue-minimisations  :  4104
 total energy-change (2. order) :-0.5062999E+00  (-0.5062071E+00)
 number of electron     375.9999835 magnetization 
 augmentation part       36.9000792 magnetization 

 Broyden mixing:
  rms(total) = 0.49565E+01    rms(broyden)= 0.49543E+01
  rms(prec ) = 0.54875E+01
  weight for this iteration     100.00

 Free energy of the ion-electron system (eV)
  ---------------------------------------------------
  alpha Z        PSCENC =       271.78674889
  Ewald energy   TEWEN  =     84073.05684624
  -Hartree energ DENC   =   -105037.23848467
  -exchange      EXHF   =         0.00000000
  -V(xc)+E(xc)   XCENC  =       783.02013843
  PAW double counting   =     19356.41094894   -18675.89497373
  entropy T*S    EENTRO =         0.00000000
  eigenvalues    EBANDS =     -4783.58894167
  atomic energy  EATOM  =     23472.75423047
  Solvation  Ediel_sol  =         0.00000000
  ---------------------------------------------------
  free energy    TOTEN  =      -539.69348710 eV

  energy without entropy =     -539.69348710  energy(sigma->0) =     -539.69348710


--------------------------------------------------------------------------------------------------------




--------------------------------------- Iteration      1(   6)  ---------------------------------------


    POTLOK:  cpu time      2.9499: real time      0.4214
    SETDIJ:  cpu time      0.2561: real time      0.0366
    EDDIAG:  cpu time      5.1606: real time      0.7386
  RMM-DIIS:  cpu time      4.2788: real time      1.7481
    ORTHCH:  cpu time      0.7237: real time      0.3682
 BZINTS: Fermi energy:   -3.043686;  376.000000 electrons
         Band energy:-0.419177E+04;  BLOECHL correction:   -0.046486
       DOS:  cpu time      0.0333: real time      0.0166
    CHARGE:  cpu time      0.5272: real time      0.1572
    MIXING:  cpu time      0.1271: real time      0.0182
    --------------------------------------------
      LOOP:  cpu time     14.0569: real time      3.5049

 eigenvalue-minimisations  :  3528
 total energy-change (2. order) : 0.4065947E+02  (-0.2721413E+02)
 number of electron     375.9999861 magnetization 
 augmentation part       33.2213602 magnetization 

 Broyden mixing:
  rms(total) = 0.37448E+01    rms(broyden)= 0.37410E+01
  rms(prec ) = 0.40588E+01
  weight for this iteration     100.00

 eigenvalues of (default mixing * dielectric matrix)
  average eigenvalue GAMMA=   0.6066
  0.6066

 Free energy of the ion-electron system (eV)
  ---------------------------------------------------
  alpha Z        PSCENC =       271.78674889
  Ewald energy   TEWEN  =     84073.05684624
  -Hartree energ DENC   =   -105618.07275402
  -exchange      EXHF   =         0.00000000
  -V(xc)+E(xc)   XCENC  =       824.18247414
  PAW double counting   =     23382.09098739   -22713.06431626
  entropy T*S    EENTRO =         0.00000000
  eigenvalues    EBANDS =     -4191.76823056
  atomic energy  EATOM  =     23472.75423047
  Solvation  Ediel_sol  =         0.00000000
  ---------------------------------------------------
  free energy    TOTEN  =      -499.03401371 eV

  energy without entropy =     -499.03401371  energy(sigma->0) =     -499.03401371


--------------------------------------------------------------------------------------------------------




--------------------------------------- Iteration      1(   7)  ---------------------------------------


    POTLOK:  cpu time      2.9817: real time      0.4261
    SETDIJ:  cpu time      0.2500: real time      0.0357
    EDDIAG:  cpu time      5.0325: real time      0.7203
  RMM-DIIS:  cpu time      4.3211: real time      1.7701
    ORTHCH:  cpu time      0.7241: real time      0.3685
 BZINTS: Fermi energy:   -3.388255;  376.000000 electrons
         Band energy:-0.409580E+04;  BLOECHL correction:   -0.020131
       DOS:  cpu time      0.0332: real time      0.0166
    CHARGE:  cpu time      0.5129: real time      0.1546
    MIXING:  cpu time      0.1271: real time      0.0182
    --------------------------------------------
      LOOP:  cpu time     13.9826: real time      3.5100

 eigenvalue-minimisations  :  3536
 total energy-change (2. order) : 0.1449918E+02  (-0.4547970E+01)
 number of electron     375.9999870 magnetization 
 augmentation part       32.6379742 magnetization 

 Broyden mixing:
  rms(total) = 0.20297E+01    rms(broyden)= 0.20261E+01
  rms(prec ) = 0.22527E+01
  weight for this iteration     100.00

 eigenvalues of (default mixing * dielectric matrix)
  average eigenvalue GAMMA=   0.6433
  0.6433  0.6433

 Free energy of the ion-electron system (eV)
  ---------------------------------------------------
  alpha Z        PSCENC =       271.78674889
  Ewald energy   TEWEN  =     84073.05684624
  -Hartree energ DENC   =   -105703.13507071
  -exchange      EXHF   =         0.00000000
  -V(xc)+E(xc)   XCENC  =       828.87912695
  PAW double counting   =     24949.86452806   -24281.94037680
  entropy T*S    EENTRO =         0.00000000
  eigenvalues    EBANDS =     -4095.80086656
  atomic energy  EATOM  =     23472.75423047
  Solvation  Ediel_sol  =         0.00000000
  ---------------------------------------------------
  free energy    TOTEN  =      -484.53483345 eV

  energy without entropy =     -484.53483345  energy(sigma->0) =     -484.53483345


--------------------------------------------------------------------------------------------------------




--------------------------------------- Iteration      1(   8)  ---------------------------------------


    POTLOK:  cpu time      2.9566: real time      0.4225
    SETDIJ:  cpu time      0.2542: real time      0.0363
    EDDIAG:  cpu time      4.9896: real time      0.7143
  RMM-DIIS:  cpu time      4.3440: real time      1.7804
    ORTHCH:  cpu time      0.7236: real time      0.3681
 BZINTS: Fermi energy:   -3.675229;  376.000000 electrons
         Band energy:-0.406412E+04;  BLOECHL correction:    0.000000
       DOS:  cpu time      0.0211: real time      0.0105
    CHARGE:  cpu time      0.5125: real time      0.1535
    MIXING:  cpu time      0.1160: real time      0.0166
    --------------------------------------------
      LOOP:  cpu time     13.9174: real time      3.5022

 eigenvalue-minimisations  :  3574
 total energy-change (2. order) : 0.6168432E+00  (-0.1036923E+01)
 number of electron     375.9999858 magnetization 
 augmentation part       32.6171394 magnetization 

 Broyden mixing:
  rms(total) = 0.37501E+01    rms(broyden)= 0.37470E+01
  rms(prec ) = 0.50632E+01
  weight for this iteration     100.00

 eigenvalues of (default mixing * dielectric matrix)
  average eigenvalue GAMMA=   0.5186
  0.6744  0.6744  0.2070

 Free energy of the ion-electron system (eV)
  ---------------------------------------------------
  alpha Z        PSCENC =       271.78674889
  Ewald energy   TEWEN  =     84073.05684624
  -Hartree energ DENC   =   -105736.10316788
  -exchange      EXHF   =         0.00000000
  -V(xc)+E(xc)   XCENC  =       830.71273777
  PAW double counting   =     26147.38728313   -25479.39693140
  entropy T*S    EENTRO =         0.00000000
  eigenvalues    EBANDS =     -4064.11573748
  atomic energy  EATOM  =     23472.75423047
  Solvation  Ediel_sol  =         0.00000000
  ---------------------------------------------------
  free energy    TOTEN  =      -483.91799027 eV

  energy without entropy =     -483.91799027  energy(sigma->0) =     -483.91799027


--------------------------------------------------------------------------------------------------------




--------------------------------------- Iteration      1(   9)  ---------------------------------------


    POTLOK:  cpu time      2.9011: real time      0.4146
    SETDIJ:  cpu time      0.2553: real time      0.0365
    EDDIAG:  cpu time      5.0150: real time      0.7179
  RMM-DIIS:  cpu time      4.3941: real time      1.8062
    ORTHCH:  cpu time      0.7269: real time      0.3697
 BZINTS: Fermi energy:   -3.438882;  376.000000 electrons
         Band energy:-0.405489E+04;  BLOECHL correction:   -0.008008
       DOS:  cpu time      0.0332: real time      0.0166
    CHARGE:  cpu time      0.5367: real time      0.1581
    MIXING:  cpu time      0.1173: real time      0.0168
    --------------------------------------------
      LOOP:  cpu time     13.9798: real time      3.5363

 eigenvalue-minimisations  :  3608
 total energy-change (2. order) : 0.2880284E+01  (-0.5493706E+00)
 number of electron     375.9999871 magnetization 
 augmentation part       32.2562120 magnetization 

 Broyden mixing:
  rms(total) = 0.15541E+01    rms(broyden)= 0.15492E+01
  rms(prec ) = 0.17935E+01
  weight for this iteration     100.00

 eigenvalues of (default mixing * dielectric matrix)
  average eigenvalue GAMMA=   0.6223
  0.8855  0.8855  0.5898  0.1283

 Free energy of the ion-electron system (eV)
  ---------------------------------------------------
  alpha Z        PSCENC =       271.78674889
  Ewald energy   TEWEN  =     84073.05684624
  -Hartree energ DENC   =   -105743.31979128
  -exchange      EXHF   =         0.00000000
  -V(xc)+E(xc)   XCENC  =       831.56118907
  PAW double counting   =     26620.64246554   -25952.62868473
  entropy T*S    EENTRO =         0.00000000
  eigenvalues    EBANDS =     -4054.89071077
  atomic energy  EATOM  =     23472.75423047
  Solvation  Ediel_sol  =         0.00000000
  ---------------------------------------------------
  free energy    TOTEN  =      -481.03770658 eV

  energy without entropy =     -481.03770658  energy(sigma->0) =     -481.03770658


--------------------------------------------------------------------------------------------------------




--------------------------------------- Iteration      1(  10)  ---------------------------------------


    POTLOK:  cpu time      2.8975: real time      0.4140
    SETDIJ:  cpu time      0.2621: real time      0.0374
    EDDIAG:  cpu time      4.9893: real time      0.7143
  RMM-DIIS:  cpu time      4.6403: real time      1.9313
    ORTHCH:  cpu time      0.7246: real time      0.3686
 BZINTS: Fermi energy:   -3.202509;  376.000000 electrons
         Band energy:-0.405119E+04;  BLOECHL correction:   -0.000463
       DOS:  cpu time      0.0330: real time      0.0165
    CHARGE:  cpu time      0.5298: real time      0.1569
    MIXING:  cpu time      0.1209: real time      0.0173
    --------------------------------------------
      LOOP:  cpu time     14.1976: real time      3.6564

 eigenvalue-minimisations  :  3864
 total energy-change (2. order) :-0.4214834E+01  (-0.6552293E+00)
 number of electron     375.9999866 magnetization 
 augmentation part       32.3526586 magnetization 

 Broyden mixing:
  rms(total) = 0.24862E+01    rms(broyden)= 0.24843E+01
  rms(prec ) = 0.27765E+01
  weight for this iteration     100.00

 eigenvalues of (default mixing * dielectric matrix)
  average eigenvalue GAMMA=   0.5905
  1.0367  1.0367  0.5565  0.1352  0.1872

 Free energy of the ion-electron system (eV)
  ---------------------------------------------------
  alpha Z        PSCENC =       271.78674889
  Ewald energy   TEWEN  =     84073.05684624
  -Hartree energ DENC   =   -105752.07504253
  -exchange      EXHF   =         0.00000000
  -V(xc)+E(xc)   XCENC  =       831.91953191
  PAW double counting   =     27505.80328945   -26837.31312540
  entropy T*S    EENTRO =         0.00000000
  eigenvalues    EBANDS =     -4051.18501978
  atomic energy  EATOM  =     23472.75423047
  Solvation  Ediel_sol  =         0.00000000
  ---------------------------------------------------
  free energy    TOTEN  =      -485.25254076 eV

  energy without entropy =     -485.25254076  energy(sigma->0) =     -485.25254076


--------------------------------------------------------------------------------------------------------




--------------------------------------- Iteration      1(  11)  ---------------------------------------


    POTLOK:  cpu time      2.9031: real time      0.4148
    SETDIJ:  cpu time      0.2531: real time      0.0362
    EDDIAG:  cpu time      4.9853: real time      0.7138
  RMM-DIIS:  cpu time      4.4408: real time      1.8315
    ORTHCH:  cpu time      0.7257: real time      0.3694
 BZINTS: Fermi energy:   -3.331892;  376.000000 electrons
         Band energy:-0.404003E+04;  BLOECHL correction:    0.000000
       DOS:  cpu time      0.0221: real time      0.0110
    CHARGE:  cpu time      0.5313: real time      0.1561
    MIXING:  cpu time      0.1230: real time      0.0176
    --------------------------------------------
      LOOP:  cpu time     13.9843: real time      3.5504

 eigenvalue-minimisations  :  3675
 total energy-change (2. order) : 0.3370956E+01  (-0.2525067E+00)
 number of electron     375.9999865 magnetization 
 augmentation part       32.3353570 magnetization 

 Broyden mixing:
  rms(total) = 0.19963E+01    rms(broyden)= 0.19944E+01
  rms(prec ) = 0.22419E+01
  weight for this iteration     100.00

 eigenvalues of (default mixing * dielectric matrix)
  average eigenvalue GAMMA=   0.5332
  1.0802  1.0802  0.5423  0.1872  0.1872  0.1219

 Free energy of the ion-electron system (eV)
  ---------------------------------------------------
  alpha Z        PSCENC =       271.78674889
  Ewald energy   TEWEN  =     84073.05684624
  -Hartree energ DENC   =   -105760.52294301
  -exchange      EXHF   =         0.00000000
  -V(xc)+E(xc)   XCENC  =       832.36339878
  PAW double counting   =     28057.10936976   -27388.39548623
  entropy T*S    EENTRO =         0.00000000
  eigenvalues    EBANDS =     -4040.03375001
  atomic energy  EATOM  =     23472.75423047
  Solvation  Ediel_sol  =         0.00000000
  ---------------------------------------------------
  free energy    TOTEN  =      -481.88158510 eV

  energy without entropy =     -481.88158510  energy(sigma->0) =     -481.88158510


--------------------------------------------------------------------------------------------------------




--------------------------------------- Iteration      1(  12)  ---------------------------------------


    POTLOK:  cpu time      2.9212: real time      0.4174
    SETDIJ:  cpu time      0.2533: real time      0.0362
    EDDIAG:  cpu time      4.9821: real time      0.7132
  RMM-DIIS:  cpu time      4.5493: real time      1.8865
    ORTHCH:  cpu time      0.7245: real time      0.3687
 BZINTS: Fermi energy:   -3.350190;  376.000000 electrons
         Band energy:-0.403367E+04;  BLOECHL correction:   -0.007756
       DOS:  cpu time      0.0346: real time      0.0173
    CHARGE:  cpu time      0.5106: real time      0.1542
    MIXING:  cpu time      0.1325: real time      0.0189
    --------------------------------------------
      LOOP:  cpu time     14.1080: real time      3.6124

 eigenvalue-minimisations  :  3789
 total energy-change (2. order) : 0.1796638E+01  (-0.1363157E+00)
 number of electron     375.9999868 magnetization 
 augmentation part       32.2737871 magnetization 

 Broyden mixing:
  rms(total) = 0.12074E+01    rms(broyden)= 0.12050E+01
  rms(prec ) = 0.13657E+01
  weight for this iteration     100.00

 eigenvalues of (default mixing * dielectric matrix)
  average eigenvalue GAMMA=   0.5229
  1.0301  1.0301  0.6668  0.3481  0.3481  0.1292  0.1082

 Free energy of the ion-electron system (eV)
  ---------------------------------------------------
  alpha Z        PSCENC =       271.78674889
  Ewald energy   TEWEN  =     84073.05684624
  -Hartree energ DENC   =   -105765.36730268
  -exchange      EXHF   =         0.00000000
  -V(xc)+E(xc)   XCENC  =       832.57844778
  PAW double counting   =     28255.56976885   -27586.79281009
  entropy T*S    EENTRO =         0.00000000
  eigenvalues    EBANDS =     -4033.67087612
  atomic energy  EATOM  =     23472.75423047
  Solvation  Ediel_sol  =         0.00000000
  ---------------------------------------------------
  free energy    TOTEN  =      -480.08494666 eV

  energy without entropy =     -480.08494666  energy(sigma->0) =     -480.08494666


--------------------------------------------------------------------------------------------------------




--------------------------------------- Iteration      1(  13)  ---------------------------------------


    POTLOK:  cpu time      2.9023: real time      0.4151
    SETDIJ:  cpu time      0.2529: real time      0.0361
    EDDIAG:  cpu time      4.9699: real time      0.7121
  RMM-DIIS:  cpu time      4.7695: real time      1.9820
    ORTHCH:  cpu time      0.7297: real time      0.3667
 BZINTS: Fermi energy:   -3.338469;  376.000000 electrons
         Band energy:-0.402536E+04;  BLOECHL correction:   -0.018225
       DOS:  cpu time      0.0332: real time      0.0166
    CHARGE:  cpu time      0.5138: real time      0.1547
    MIXING:  cpu time      0.1294: real time      0.0185
    --------------------------------------------
      LOOP:  cpu time     14.3008: real time      3.7018

[...]
  299                m_alltoallv_z                         0.035637                    5   7
  300                map_scatter                           0.005978                    5   7
  301              map_backward                          0.056921                     12   6
  302                map_gather                            0.007363                    6   7
  303                m_alltoallv_z                         0.035252                    6   7
  304                map_scatter                           0.014255                    6   7
  305        ggaall_grid                           0.053378                            1   3
  306        m_sumb_d                              0.000215                            5   3
  307        forhar                                0.153708                            2   3
  308          m_sumb_d                              0.004057                          2   4
  309        strehar                               0.004439                            1   3
  310          m_sumb_d                              0.000218                          1   4
  311        chggra                                0.067345                            1   3
  312          fft3d_mpi                             0.063260                          3   4
  313            fftbrc_mpi                            0.061910                        3   5
  314              fftbas_plan_mpi                       0.061906                      3   6
  315                map_forward                           0.036063                    4   7
  316                  map_gather                            0.000008                  2   8
  317                  m_alltoallv_z                         0.036038                  2   8
  318                  map_scatter                           0.000004                  2   8
  319                map_backward                          0.000023                    2   7
  320                  map_gather                            0.000002                  1   8
  321                  m_alltoallv_z                         0.000014                  1   8
  322                  map_scatter                           0.000001                  1   8
  323          m_sumb_d                              0.000010                          2   4
  324          pothar                                0.000623                          1   4
  325            m_sumb_d                              0.000194                        1   5
  326        brmix                                 0.059110                            1   3
  327          m_sumb_d                              0.000056                          6   4
  328          brpre                                 0.000294                          1   4
  329          setg0                                 0.010926                          1   4
  330          broyd                                 0.044501                          1   4
  331            m_sumb_d                              0.013452                       49   5
  332            brget                                 0.003390                      219   5
  333            brsav                                 0.001888                       47   5
  334        m_bcast_d                             0.000095                            2   3
  335      potlok                                0.415427                              1   2
  336        fft3d_mpi                             0.161472                           13   3
  337          fftbrc_mpi                            0.136039                         13   4
  338            fftbas_plan_mpi                       0.136022                       13   5
  339              dfftw_execute                         0.043037                     39   6
  340              map_forward                           0.044926                     14   6
  341                map_gather                            0.014691                    8   7
  342                m_alltoallv_z                         0.022028                    8   7
  343                map_scatter                           0.008146                    8   7
  344              map_backward                          0.046882                     12   6
  345                map_gather                            0.007485                    6   7
  346                m_alltoallv_z                         0.021703                    6   7
  347                map_scatter                           0.017653                    6   7
  348        ggaall_grid                           0.051145                            1   3
  349        m_sumb_d                              0.000044                            5   3
  350        pothar                                0.011967                            1   3
  351          m_sumb_d                              0.002812                          1   4
  352        m_bcast_d                             0.002358                            1   3
  353      potlok_metagga                        0.000000                              1   2
  354      set_dd_magatom                        0.000002                              1   2
  355      set_dd_paw                            0.023447                              1   2
  356        m_sumb_d                              0.001671                            7   3
  357      m_bcast_d                             0.000025                              2   2
  358      fftwav_mpi                            5.931002                           1197   2
  359        fftwav                                5.922363                         1197   3
  360          fft3d                                 3.818062                       1197   4
  361      densta                                0.016553                              1   2
 
 Flat profile
 ============
 
             routine name                   CPU           calls
 ---------------------------------------------------------------
 eddiag                                 32.954271          52
 i2                                     25.602383       12599
 eddav                                  19.893758           5
 m_sumb_d                               18.852399       16189
 hamiltmu                               13.981982       16065
 i3                                     12.797642       12599
 total_time                             12.338905           1
 potlok                                 10.012006          54
 rpromu_acc                              9.497688       16415
 newband                                 8.436911       16464
 orthch                                  7.445850          53
 fft3d                                   7.305678      200857
 phaser                                  6.346773         490
 m_alltoall_d                            3.906604      279629
 orth1                                   3.738685       11133
 choleski                                3.638428         371
 racc0mu_acc                             3.537666       16065
 raccmu_                                 3.479317       16065
 lapack                                  3.330331        3466
 m_alltoallv_z                           3.273846         950
 cnorma                                  3.173705      202947
 fftwav                                  3.042239      124827
 ggaall_grid                             2.710797          55
 dfftw_execute                           2.657096        2490
 w1_gemv                                 2.139972      273896
 map_scatter                             2.032861         950
 eccp                                    1.915985       90392
 fft3d_mpi                               1.899459       76863
 w1_copy                                 1.556284      165846
 overl_mu                                1.288583       16065
 w1_dscal                                1.287716      130988
 map_gather                              1.195932         950
 set_dd_paw                              1.190739          55
 m_bcast_z                               1.045810        5062
 w1_dot                                  0.975327       19944
 lincom                                  0.962713         770
 densta                                  0.953538          58
 setdij_                                 0.953284          81
 augmentation_charge                     0.926280          53
 w1_gaxpy                                0.770876       91161
 w1_daxpy                                0.765137       95410
 broyd                                   0.734234          53
 redis_pw                                0.643713       20228
 redis_proj                              0.617715       25377
 overl1                                  0.505400       68474
 pothar                                  0.499934          55
 setg0                                   0.452350          54
 rspher_all                              0.436056          14
 init_hip                                0.419708           1
 apply_precond                           0.410129      115883
 eddrmm                                  0.349259          52
 elmin                                   0.342672           1
 kinhamil                                0.319966       76030
 vhamil                                  0.312091       76030
 fftext_mpi                              0.311329       76030
 eccp_nl                                 0.274770      135298
 zhegv                                   0.246312       27761
 ggemm                                   0.219161        4481
 depsum                                  0.217993          53
 brmix                                   0.210381          53
 soft_charge                             0.202773          53
 fftwav_mpi                              0.198437      124827
 m_bcast_d                               0.167497        6990
 setup_precond                           0.165600       22743
 force_and_stress                        0.154434           1
 forhar                                  0.149652           2
 overl                                   0.147468       12286
 fftbas_plan_mpi                         0.142176         833
 brget                                   0.115113        7320
 set_charge                              0.103832          53
 forloc                                  0.076124           1
 stufak                                  0.071959           1
 brsav                                   0.066690        1832
 pw_charge                               0.056386       17691
 proall                                  0.053623           1
 rpro_isp                                0.042826          91
 brgrid                                  0.027441           1
 i1                                      0.025435       12599
 fft_gq                                  0.023281          53
 hamilt_local                            0.020645       20748
 strnlr                                  0.018469           1
 hip_hipfft_makeplan                     0.017363           6
 strkin                                  0.016872           1
 w1_projall                              0.016184       15050
 brpre                                   0.015619          53
 inisym                                  0.011796           1
 truncate_high_frequency_w1              0.010501       78025
 strelo                                  0.006118           1
 fornlr                                  0.005419           1
 rsp                                     0.004857           1
 strehar                                 0.004221           1
 map_backward                            0.003506         880
 chggra                                  0.003452           1
 map_forward                             0.003066         786
 fewald                                  0.001513           1
 fftbrc_mpi                              0.001089         833
 rcp                                     0.000410           1
 set_dd_magatom                          0.000369          55
 vectorpot                               0.000343          54
 hip_init_rocsolver                      0.000242           1
 shift_bands_between_low_high            0.000227         364
 hip_init_hipblas                        0.000193           1
 crpa_reader                             0.000051           1
 fordep                                  0.000040           1
 potlok_metagga                          0.000040          54
 posmap                                  0.000018           2
 hip_hipfft_makeplans                    0.000006           3
 rotate_active_occupied_orbital          0.000006           1
 redis_pw_over_bands                     0.000000           1
 ---------------------------------------------------------------
  summed up times    253.492008209229     
 
 Accumulative profile
 ====================
 
             routine name                   CPU           calls
 ---------------------------------------------------------------
 total_time                            253.492008           1
 elmin                                 223.487865           1
 eddrmm                                 96.655516          52
 eddiag                                 37.386199          52
 eddav                                  34.822891           5
 i2                                     32.545848       12599
 hamiltmu                               23.958331       16065
 orthch                                 22.986597          53
 potlok                                 22.822731          54
 i3                                     19.857871       12599
 m_sumb_d                               18.852399       16189
 fft3d_mpi                              12.487685       76863
 newband                                10.015548       16464
 rpromu_acc                              9.497688       16415
 fftbrc_mpi                              9.309571         833
 fftbas_plan_mpi                         9.308481         833
 fftwav_mpi                              9.267698      124827
 fftwav                                  9.069261      124827
 raccmu_                                 8.305567       16065
 set_charge                              8.248217          53
 w1_projall                              7.671121       15050
 fft3d                                   7.305678      200857
 phaser                                  6.346773         490
 soft_charge                             6.204260          53
 force_and_stress                        4.657000           1
 m_alltoall_d                            3.906604      279629
 map_backward                            3.771816         880
 orth1                                   3.738685       11133
 choleski                                3.638428         371
 racc0mu_acc                             3.537666       16065
 cnorma                                  3.448475      202947
 lapack                                  3.330331        3466
 m_alltoallv_z                           3.273846         950
 map_forward                             2.737394         786
 redis_proj                              2.715918       25377
 ggaall_grid                             2.710797          55
 dfftw_execute                           2.657096        2490
 w1_gemv                                 2.645372      273896
 strnlr                                  2.553053           1
 redis_pw                                2.452114       20228
 rpro_isp                                2.113549          91
 map_scatter                             2.032861         950
 kinhamil                                1.954037       76030
 eccp                                    1.915985       90392
 brmix                                   1.811781          53
 augmentation_charge                     1.698562          53
 fftext_mpi                              1.634071       76030
 w1_copy                                 1.556284      165846
 set_dd_paw                              1.288728          55
 overl_mu                                1.288583       16065
 w1_dscal                                1.287716      130988
 map_gather                              1.195932         950
 broyd                                   1.121099          53
 m_bcast_z                               1.045810        5062
 setdij_                                 0.996828          81
 w1_dot                                  0.975327       19944
 lincom                                  0.962713         770
 densta                                  0.953538          58
 fornlr                                  0.840039           1
 w1_gaxpy                                0.770876       91161
 w1_daxpy                                0.765137       95410
 hamilt_local                            0.615991       20748
 fft_gq                                  0.594540          53
 pothar                                  0.566436          55
 overl1                                  0.505400       68474
 setg0                                   0.452350          54
 rspher_all                              0.436056          14
 proall                                  0.434191           1
 init_hip                                0.419708           1
 apply_precond                           0.410129      115883
 i1                                      0.398372       12599
 vhamil                                  0.312091       76030
 eccp_nl                                 0.274770      135298
 zhegv                                   0.246312       27761
 depsum                                  0.241562          53
 ggemm                                   0.219161        4481
 m_bcast_d                               0.167497        6990
 setup_precond                           0.165600       22743
 forhar                                  0.153708           2
 overl                                   0.147468       12286
 brget                                   0.115113        7320
 forloc                                  0.079771           1
 fordep                                  0.072620           1
 stufak                                  0.071959           1
 chggra                                  0.067345           1
 brsav                                   0.066690        1832
 pw_charge                               0.056386       17691
 brgrid                                  0.027441           1
 hip_hipfft_makeplans                    0.017369           3
 hip_hipfft_makeplan                     0.017363           6
 strkin                                  0.016906           1
 brpre                                   0.015619          53
 inisym                                  0.011814           1
 truncate_high_frequency_w1              0.010501       78025
 fewald                                  0.006899           1
 strelo                                  0.006332           1
 rsp                                     0.004857           1
 strehar                                 0.004439           1
 rcp                                     0.000410           1
 set_dd_magatom                          0.000369          55
 vectorpot                               0.000343          54
 hip_init_rocsolver                      0.000242           1
 shift_bands_between_low_high            0.000227         364
 hip_init_hipblas                        0.000193           1
 crpa_reader                             0.000051           1
 potlok_metagga                          0.000040          54
 posmap                                  0.000018           2
 rotate_active_occupied_orbital          0.000006           1
 redis_pw_over_bands                     0.000000           1
 ---------------------------------------------------------------
 
Profiling took   0.549215  0.315280  0.002954  0.002829 seconds
Profiling took   0.409722 seconds
