<?xml version="1.0" encoding="ISO-8859-1"?>
<modeling>
 <generator>
  <i name="program" type="string">vasp </i>
  <i name="version" type="string">6.3.2  </i>
  <i name="subversion" type="string">27Jun22 (build Mar 15 2023 15:45:48) complex                          parallel </i>
  <i name="platform" type="string">LinuxIFC </i>
  <i name="date" type="string">2024 07 25 </i>
  <i name="time" type="string">09:11:25 </i>
 </generator>
 <incar>
  <i type="string" name="SYSTEM">ni3al</i>
  <i type="int" name="ISTART">     0</i>
  <i type="string" name="PREC">Accurate</i>
  <i type="string" name="ALGO">Fast</i>
  <i name="AMIN">      0.01000000</i>
  <i type="int" name="ICHARG">     2</i>
  <i type="int" name="NELM">   150</i>
  <i type="int" name="IBRION">    -1</i>
  <i name="EDIFF">      0.00000100</i>
  <i name="EDIFFG">     -0.01000000</i>
  <i type="int" name="NSW">     0</i>
  <i type="int" name="ISIF">     2</i>
  <i name="ENCUT">    530.00000000</i>
  <i type="string" name="LREAL">Auto</i>
  <i type="int" name="ISMEAR">    -5</i>
  <i name="SIGMA">      0.10000000</i>
  <i type="int" name="LMAXMIX">     4</i>
  <i type="logical" name="LWAVE"> T  </i>
  <i type="logical" name="LCHARG"> F  </i>
  <i type="logical" name="LELF"> T  </i>
 </incar>
 <primitive_cell>
  <structure name="primitive_cell" >
   <crystal>
    <varray name="basis" >
     <v>       9.61490200       0.00000000       0.00000000 </v>
     <v>       0.00000000       8.32674900       0.00000000 </v>
     <v>       0.00000000       0.00000000      21.56058900 </v>
    </varray>
    <i name="volume">   1726.15963408 </i>
    <varray name="rec_basis" >
     <v>       0.10400522       0.00000000       0.00000000 </v>
     <v>       0.00000000       0.12009489       0.00000000 </v>
     <v>       0.00000000       0.00000000       0.04638092 </v>
    </varray>
   </crystal>
   <varray name="positions" >
    <v>       0.17345600       0.98642100       0.00000000 </v>
    <v>       0.42345600       0.48642100       0.00000000 </v>
    <v>       0.09691200       0.50000000       0.10142900 </v>
    <v>       0.34691300       0.00000000       0.10142900 </v>
    <v>       0.15308800       0.33333300       0.00000000 </v>
    <v>       0.40308800       0.83333300       0.00000000 </v>
    <v>       0.17345600       0.68024600       0.00000000 </v>
    <v>       0.42345600       0.18024500       0.00000000 </v>
    <v>       0.07654400       0.15308700       0.10142900 </v>
    <v>       0.32654400       0.65308700       0.10142900 </v>
    <v>       0.07654400       0.84691300       0.10142900 </v>
    <v>       0.32654400       0.34691300       0.10142900 </v>
    <v>       0.17345600       0.31975500       0.20285800 </v>
    <v>       0.42345600       0.81975500       0.20285800 </v>
    <v>       0.11184412       0.83511109       0.30509833 </v>
    <v>       0.37145885       0.28962479       0.30302635 </v>
    <v>       0.15308700       0.66666700       0.20285800 </v>
    <v>       0.40308800       0.16666700       0.20285800 </v>
    <v>       0.17345600       0.01358000       0.20285800 </v>
    <v>       0.42345600       0.51358000       0.20285800 </v>
    <v>       0.06491186       0.48308338       0.30060106 </v>
    <v>       0.04536708       0.98150452       0.32438204 </v>
    <v>       0.15055824       0.09627731       0.33048357 </v>
    <v>       0.34261732       0.72184959       0.30243522 </v>
    <v>       0.67345600       0.98642100       0.00000000 </v>
    <v>       0.92345600       0.48642100       0.00000000 </v>
    <v>       0.59691300       0.50000000       0.10142900 </v>
    <v>       0.84691300       0.00000000       0.10142900 </v>
    <v>       0.65308800       0.33333300       0.00000000 </v>
    <v>       0.90308800       0.83333300       0.00000000 </v>
    <v>       0.67345600       0.68024500       0.00000000 </v>
    <v>       0.92345600       0.18024500       0.00000000 </v>
    <v>       0.57654400       0.15308700       0.10142900 </v>
    <v>       0.82654400       0.65308700       0.10142900 </v>
    <v>       0.57654400       0.84691300       0.10142900 </v>
    <v>       0.82654400       0.34691300       0.10142900 </v>
    <v>       0.67345600       0.31975500       0.20285800 </v>
    <v>       0.92345600       0.81975500       0.20285800 </v>
    <v>       0.60850529       0.83815181       0.30437371 </v>
    <v>       0.88697654       0.26108976       0.30465235 </v>
    <v>       0.65308800       0.66666700       0.20285800 </v>
    <v>       0.90308800       0.16666700       0.20285800 </v>
    <v>       0.67345600       0.01358000       0.20285800 </v>
    <v>       0.92345600       0.51357900       0.20285800 </v>
    <v>       0.59486420       0.48997727       0.29935867 </v>
    <v>       0.53248326       0.98353629       0.31881951 </v>
    <v>       0.62730909       0.11029246       0.32491761 </v>
    <v>       0.84843721       0.74716884       0.30290208 </v>
    <v>       0.55902481       0.47611910       0.36510893 </v>
    <v>       0.00000000       0.66666700       0.14070600 </v>
    <v>       0.25000000       0.16666700       0.14070600 </v>
    <v>       0.00000000       0.33333300       0.06215200 </v>
    <v>       0.25000000       0.83333300       0.06215200 </v>
    <v>       0.00000000       0.00000000       0.03927700 </v>
    <v>       0.25000000       0.50000000       0.03927700 </v>
    <v>       0.00000000       0.66666700       0.26500900 </v>
    <v>       0.25000000       0.16666700       0.26500900 </v>
    <v>       0.00000000       0.33333300       0.24213400 </v>
    <v>       0.25000000       0.83333300       0.24213400 </v>
    <v>       0.00000000       0.00000000       0.16358100 </v>
    <v>       0.25000000       0.50000000       0.16358100 </v>
    <v>       0.50000000       0.66666700       0.14070600 </v>
    <v>       0.75000000       0.16666700       0.14070600 </v>
    <v>       0.50000000       0.33333300       0.06215200 </v>
    <v>       0.75000000       0.83333300       0.06215200 </v>
    <v>       0.50000000       0.00000000       0.03927700 </v>
    <v>       0.75000000       0.50000000       0.03927700 </v>
    <v>       0.50000000       0.66666700       0.26500900 </v>
    <v>       0.75000000       0.16666700       0.26500900 </v>
    <v>       0.50000000       0.33333300       0.24213400 </v>
    <v>       0.75000000       0.83333300       0.24213400 </v>
    <v>       0.50000000       0.00000000       0.16358100 </v>
    <v>       0.75000000       0.50000000       0.16358100 </v>
    <v>       0.26202556       0.49429515       0.38569783 </v>
   </varray>
  </structure>
  <varray name="primitive_index" >
   <v type="int" >        1 </v>
   <v type="int" >        2 </v>
   <v type="int" >        3 </v>
   <v type="int" >        4 </v>
   <v type="int" >        5 </v>
   <v type="int" >        6 </v>
   <v type="int" >        7 </v>
   <v type="int" >        8 </v>
   <v type="int" >        9 </v>
   <v type="int" >       10 </v>
   <v type="int" >       11 </v>
   <v type="int" >       12 </v>
   <v type="int" >       13 </v>
   <v type="int" >       14 </v>
   <v type="int" >       15 </v>
   <v type="int" >       16 </v>
   <v type="int" >       17 </v>
   <v type="int" >       18 </v>
   <v type="int" >       19 </v>
   <v type="int" >       20 </v>
   <v type="int" >       21 </v>
   <v type="int" >       22 </v>
   <v type="int" >       23 </v>
   <v type="int" >       24 </v>
   <v type="int" >       25 </v>
   <v type="int" >       26 </v>
   <v type="int" >       27 </v>
   <v type="int" >       28 </v>
   <v type="int" >       29 </v>
   <v type="int" >       30 </v>
   <v type="int" >       31 </v>
   <v type="int" >       32 </v>
   <v type="int" >       33 </v>
   <v type="int" >       34 </v>
   <v type="int" >       35 </v>
   <v type="int" >       36 </v>
   <v type="int" >       37 </v>
   <v type="int" >       38 </v>
   <v type="int" >       39 </v>
   <v type="int" >       40 </v>
   <v type="int" >       41 </v>
   <v type="int" >       42 </v>
   <v type="int" >       43 </v>
   <v type="int" >       44 </v>
   <v type="int" >       45 </v>
   <v type="int" >       46 </v>
   <v type="int" >       47 </v>
   <v type="int" >       48 </v>
   <v type="int" >       49 </v>
   <v type="int" >       50 </v>
   <v type="int" >       51 </v>
   <v type="int" >       52 </v>
   <v type="int" >       53 </v>
   <v type="int" >       54 </v>
   <v type="int" >       55 </v>
   <v type="int" >       56 </v>
   <v type="int" >       57 </v>
   <v type="int" >       58 </v>
   <v type="int" >       59 </v>
   <v type="int" >       60 </v>
   <v type="int" >       61 </v>
   <v type="int" >       62 </v>
   <v type="int" >       63 </v>
   <v type="int" >       64 </v>
   <v type="int" >       65 </v>
   <v type="int" >       66 </v>
   <v type="int" >       67 </v>
   <v type="int" >       68 </v>
   <v type="int" >       69 </v>
   <v type="int" >       70 </v>
   <v type="int" >       71 </v>
   <v type="int" >       72 </v>
   <v type="int" >       73 </v>
   <v type="int" >       74 </v>
  </varray>
 </primitive_cell>
 <kpoints>
  <generation param="Gamma">
   <v type="int" name="divisions">       3        4        1 </v>
   <v name="usershift">      0.00000000       0.00000000       0.00000000 </v>
   <v name="genvec1">      0.33333333       0.00000000       0.00000000 </v>
   <v name="genvec2">      0.00000000       0.25000000       0.00000000 </v>
   <v name="genvec3">      0.00000000       0.00000000       1.00000000 </v>
   <v name="shift">      0.00000000       0.00000000       0.00000000 </v>
  </generation>
  <varray name="kpointlist" >
   <v>       0.00000000       0.00000000       0.00000000 </v>
   <v>       0.33333333       0.00000000       0.00000000 </v>
   <v>       0.00000000       0.25000000       0.00000000 </v>
   <v>       0.33333333       0.25000000       0.00000000 </v>
   <v>      -0.33333333       0.25000000       0.00000000 </v>
   <v>       0.00000000       0.50000000       0.00000000 </v>
   <v>       0.33333333       0.50000000       0.00000000 </v>
  </varray>
  <varray name="weights" >
   <v>       0.08333333 </v>
   <v>       0.16666667 </v>
   <v>       0.16666667 </v>
   <v>       0.16666667 </v>
   <v>       0.16666667 </v>
   <v>       0.08333333 </v>
   <v>       0.16666667 </v>
  </varray>
  <varray name="tetrahedronlist"  type="int" >
   <v type="int" >        2        2        4        5        5 </v>
   <v type="int" >        2        2        2        5        5 </v>
   <v type="int" >        4        2        2        2        5 </v>
   <v type="int" >        2        2        4        4        5 </v>
   <v type="int" >        2        2        2        4        5 </v>
   <v type="int" >        2        3        6        7        7 </v>
   <v type="int" >        2        3        4        7        7 </v>
   <v type="int" >        2        3        4        4        7 </v>
   <v type="int" >        2        3        6        6        7 </v>
   <v type="int" >        2        3        3        6        7 </v>
   <v type="int" >        2        3        3        4        7 </v>
   <v type="int" >        2        1        3        4        4 </v>
   <v type="int" >        2        1        2        4        4 </v>
   <v type="int" >        2        1        2        2        4 </v>
   <v type="int" >        2        1        3        3        4 </v>
   <v type="int" >        2        1        1        3        4 </v>
   <v type="int" >        2        1        1        2        4 </v>
   <v type="int" >        2        5        6        6        7 </v>
   <v type="int" >        2        3        5        6        6 </v>
   <v type="int" >        2        3        3        5        6 </v>
   <v type="int" >        2        5        6        7        7 </v>
   <v type="int" >        2        5        5        6        7 </v>
   <v type="int" >        2        3        5        5        6 </v>
   <v type="int" >        2        4        4        5        7 </v>
   <v type="int" >        2        4        4        7        7 </v>
   <v type="int" >        4        4        7        7        7 </v>
   <v type="int" >        2        4        5        5        7 </v>
   <v type="int" >        2        4        5        7        7 </v>
   <v type="int" >        2        1        2        2        3 </v>
   <v type="int" >        2        2        2        3        5 </v>
   <v type="int" >        2        2        3        5        5 </v>
   <v type="int" >        2        1        1        2        3 </v>
   <v type="int" >        2        1        2        3        3 </v>
   <v type="int" >        2        2        3        3        5 </v>
  </varray>
  <i name="volumeweight">      0.01388889 </i>
 </kpoints>
 <parameters>
  <separator name="general" >
   <i type="string" name="SYSTEM">ni3al</i>
   <i type="logical" name="LCOMPAT"> F  </i>
  </separator>
  <separator name="electronic" >
   <i type="string" name="PREC">accura</i>
   <i name="ENMAX">    530.00000000</i>
   <i name="ENAUG">    613.61400000</i>
   <i name="EDIFF">      0.00000100</i>
   <i type="int" name="IALGO">    68</i>
   <i type="int" name="IWAVPR">    10</i>
   <i type="int" name="NBANDS">   228</i>
   <i type="int" name="NBANDSLOW">    -1</i>
   <i type="int" name="NBANDSHIGH">    -1</i>
   <i name="NELECT">    376.00000000</i>
   <i type="int" name="TURBO">     0</i>
   <i type="int" name="IRESTART">     0</i>
   <i type="int" name="NREBOOT">     0</i>
   <i type="int" name="NMIN">     0</i>
   <i name="EREF">      0.00000000</i>
   <separator name="electronic smearing" >
    <i type="int" name="ISMEAR">    -5</i>
    <i name="SIGMA">      0.10000000</i>
    <i name="KSPACING">      0.50000000</i>
    <i type="logical" name="KGAMMA"> T  </i>
    <i type="logical" name="KBLOWUP"> T  </i>
   </separator>
   <separator name="electronic projectors" >
    <i type="logical" name="LREAL"> T  </i>
    <v name="ROPT">     -0.00025000     -0.00025000     -0.00025000     -0.00025000</v>
    <i type="int" name="LMAXPAW">  -100</i>
    <i type="int" name="LMAXMIX">     4</i>
    <i type="logical" name="NLSPLINE"> F  </i>
   </separator>
   <separator name="electronic startup" >
    <i type="int" name="ISTART">     0</i>
    <i type="int" name="ICHARG">     2</i>
    <i type="int" name="INIWAV">     1</i>
   </separator>
   <separator name="electronic spin" >
    <i type="int" name="ISPIN">     1</i>
    <i type="logical" name="LNONCOLLINEAR"> F  </i>
    <v name="MAGMOM">      1.00000000      1.00000000      1.00000000      1.00000000      1.00000000      1.00000000      1.00000000      1.00000000      1.00000000      1.00000000      1.00000000      1.00000000      1.00000000      1.00000000      1.00000000      1.00000000      1.00000000      1.00000000      1.00000000      1.00000000
      1.00000000      1.00000000      1.00000000      1.00000000      1.00000000      1.00000000      1.00000000      1.00000000      1.00000000      1.00000000      1.00000000      1.00000000      1.00000000      1.00000000      1.00000000      1.00000000      1.00000000      1.00000000      1.00000000      1.00000000
      1.00000000      1.00000000      1.00000000      1.00000000      1.00000000      1.00000000      1.00000000      1.00000000      1.00000000      1.00000000      1.00000000      1.00000000      1.00000000      1.00000000      1.00000000      1.00000000      1.00000000      1.00000000      1.00000000      1.00000000
      1.00000000      1.00000000      1.00000000      1.00000000      1.00000000      1.00000000      1.00000000      1.00000000      1.00000000      1.00000000      1.00000000      1.00000000      1.00000000      1.00000000</v>
    <i name="NUPDOWN">     -1.00000000</i>
    <i type="logical" name="LSORBIT"> F  </i>
    <v name="SAXIS">      0.00000000      0.00000000      1.00000000</v>
    <i type="logical" name="LSPIRAL"> F  </i>
    <v name="QSPIRAL">      0.00000000      0.00000000      0.00000000</v>
    <i type="logical" name="LZEROZ"> F  </i>
   </separator>
   <separator name="electronic exchange-correlation" >
    <i type="logical" name="LASPH"> F  </i>
    <i type="logical" name="LMETAGGA"> F  </i>
   </separator>
   <separator name="electronic convergence" >
    <i type="int" name="NELM">   150</i>
    <i type="int" name="NELMDL">    -5</i>
    <i type="int" name="NELMIN">     2</i>
    <i name="ENINI">    530.00000000</i>
    <separator name="electronic convergence detail" >
     <i type="logical" name="LDIAG"> T  </i>
     <i type="logical" name="LSUBROT"> F  </i>
     <i name="WEIMIN">      0.00000000</i>
     <i name="EBREAK">      0.00000000</i>
     <i name="DEPER">      0.30000000</i>
     <i type="int" name="NRMM">     4</i>
     <i name="TIME">      0.40000000</i>
    </separator>
   </separator>
   <separator name="electronic mixer" >
    <i name="AMIX">      0.40000000</i>
    <i name="BMIX">      1.00000000</i>
    <i name="AMIN">      0.01000000</i>
    <i name="AMIX_MAG">      1.60000000</i>
    <i name="BMIX_MAG">      1.00000000</i>
    <separator name="electronic mixer details" >
     <i type="int" name="IMIX">     4</i>
     <i type="logical" name="MIXFIRST"> F  </i>
     <i type="int" name="MAXMIX">   -45</i>
     <i name="WC">    100.00000000</i>
     <i type="int" name="INIMIX">     1</i>
     <i type="int" name="MIXPRE">     1</i>
     <i type="int" name="MREMOVE">     5</i>
    </separator>
   </separator>
   <separator name="electronic dipolcorrection" >
    <i type="logical" name="LDIPOL"> F  </i>
    <i type="logical" name="LMONO"> F  </i>
    <i type="int" name="IDIPOL">     0</i>
    <i name="EPSILON">      1.00000000</i>
    <v name="DIPOL">   -100.00000000   -100.00000000   -100.00000000</v>
    <i name="EFIELD">      0.00000000</i>
   </separator>
  </separator>
  <separator name="grids" >
   <i type="int" name="NGX">    72</i>
   <i type="int" name="NGY">    64</i>
   <i type="int" name="NGZ">   162</i>
   <i type="int" name="NGXF">   144</i>
   <i type="int" name="NGYF">   128</i>
   <i type="int" name="NGZF">   324</i>
   <i type="logical" name="ADDGRID"> F  </i>
  </separator>
  <separator name="ionic" >
   <i type="int" name="NSW">     0</i>
   <i type="int" name="IBRION">    -1</i>
   <i type="int" name="MDALGO">     0</i>
   <i type="int" name="ISIF">     2</i>
   <i name="PSTRESS">      0.00000000</i>
   <i name="EDIFFG">     -0.01000000</i>
   <i type="int" name="NFREE">     0</i>
   <i name="POTIM">      0.50000000</i>
   <i name="SMASS">     -3.00000000</i>
   <i name="SCALEE">      1.00000000</i>
  </separator>
  <separator name="ionic md" >
   <i name="TEBEG">      0.00010000</i>
   <i name="TEEND">      0.00010000</i>
   <i type="int" name="NBLOCK">     1</i>
   <i type="int" name="KBLOCK">     1</i>
   <i type="int" name="NPACO">   256</i>
   <i name="APACO">     10.00000000</i>
  </separator>
  <separator name="symmetry" >
   <i type="int" name="ISYM">     2</i>
   <i name="SYMPREC">      0.00001000</i>
  </separator>
  <separator name="dos" >
   <i type="int" name="LORBIT">     0</i>
   <v name="RWIGS">     -1.00000000     -1.00000000     -1.00000000     -1.00000000</v>
   <i type="int" name="NEDOS">   301</i>
   <i name="EMIN">     10.00000000</i>
   <i name="EMAX">    -10.00000000</i>
   <i name="EFERMI">      0.00000000</i>
  </separator>
  <separator name="writing" >
   <i type="int" name="NWRITE">     2</i>
   <i type="logical" name="LWAVE"> T  </i>
   <i type="logical" name="LDOWNSAMPLE"> F  </i>
   <i type="logical" name="LCHARG"> F  </i>
   <i type="logical" name="LPARD"> F  </i>
   <i type="logical" name="LVTOT"> F  </i>
   <i type="logical" name="LVHAR"> F  </i>
   <i type="logical" name="LELF"> T  </i>
   <i type="logical" name="LOPTICS"> F  </i>
   <v name="STM">      0.00000000      0.00000000      0.00000000      0.00000000      0.00000000      0.00000000      0.00000000</v>
  </separator>
  <separator name="performance" >
   <i type="int" name="NPAR">     4</i>
   <i type="int" name="NSIM">     4</i>
   <i type="int" name="NBLK">    -1</i>
   <i type="logical" name="LPLANE"> T  </i>
   <i type="logical" name="LSCALAPACK"> T  </i>
   <i type="logical" name="LSCAAWARE"> F  </i>
   <i type="logical" name="LSCALU"> F  </i>
   <i type="logical" name="LASYNC"> F  </i>
   <i type="logical" name="LORBITALREAL"> F  </i>
  </separator>
  <separator name="miscellaneous" >
   <i type="int" name="IDIOT">     3</i>
   <i type="int" name="PHON_NSTRUCT">    -1</i>
   <i type="logical" name="LMUSIC"> F  </i>
   <v name="POMASS">     16.00000000     18.99800000     26.98100000     39.09800000</v>
   <v name="DARWINR">      0.00000000      0.00000000      0.00000000      0.00000000</v>
   <v name="DARWINV">      1.00000000      1.00000000      1.00000000      1.00000000</v>
   <i type="logical" name="LCORR"> T  </i>
  </separator>
  <i type="logical" name="GGA_COMPAT"> T  </i>
  <i type="logical" name="LBERRY"> F  </i>
  <i type="int" name="ICORELEVEL">     0</i>
  <i type="logical" name="LDAU"> F  </i>
  <i type="int" name="I_CONSTRAINED_M">     0</i>
  <separator name="electronic exchange-correlation" >
   <i type="string" name="GGA">--</i>
   <i type="int" name="VOSKOWN">     0</i>
   <i type="logical" name="LHFCALC"> F  </i>
   <i type="string" name="PRECFOCK"></i>
   <i type="logical" name="LSYMGRAD"> F  </i>
   <i type="logical" name="LHFONE"> F  </i>
   <i type="logical" name="LRHFCALC"> F  </i>
   <i type="logical" name="LTHOMAS"> F  </i>
   <i type="logical" name="LMODELHF"> F  </i>
   <i type="logical" name="LFOCKACE"> F  </i>
   <i name="ENCUT4O">     -1.00000000</i>
   <i type="int" name="EXXOEP">     0</i>
   <i type="int" name="FOURORBIT">     0</i>
   <i name="AEXX">      0.00000000</i>
   <i name="HFALPHA">      0.00000000</i>
   <i name="MCALPHA">      0.00000000</i>
   <i name="ALDAX">      1.00000000</i>
   <i name="AGGAX">      1.00000000</i>
   <i name="ALDAC">      1.00000000</i>
   <i name="AGGAC">      1.00000000</i>
   <i type="int" name="NKREDX">     1</i>
   <i type="int" name="NKREDY">     1</i>
   <i type="int" name="NKREDZ">     1</i>
   <i type="logical" name="SHIFTRED"> F  </i>
   <i type="logical" name="ODDONLY"> F  </i>
   <i type="logical" name="EVENONLY"> F  </i>
   <i type="int" name="LMAXFOCK">     0</i>
   <i type="int" name="NMAXFOCKAE">     0</i>
   <i type="logical" name="LFOCKAEDFT"> F  </i>
   <i name="HFSCREEN">      0.00000000</i>
   <i name="HFSCREENC">      0.00000000</i>
   <i type="int" name="NBANDSGWLOW">     0</i>
  </separator>
  <separator name="vdW DFT" >
   <i type="logical" name="LUSE_VDW"> F  </i>
   <i name="Zab_VDW">     -0.84910000</i>
   <i name="PARAM1">      0.12340000</i>
   <i name="PARAM2">      1.00000000</i>
   <i name="PARAM3">      0.00000000</i>
  </separator>
  <separator name="model GW" >
   <i type="int" name="MODEL_GW">     0</i>
   <i name="MODEL_EPS0">     13.99588893</i>
   <i name="MODEL_ALPHA">      1.00000000</i>
  </separator>
  <separator name="linear response parameters" >
   <i type="logical" name="LEPSILON"> F  </i>
   <i type="logical" name="LRPA"> F  </i>
   <i type="logical" name="LNABLA"> F  </i>
   <i type="logical" name="LVEL"> F  </i>
   <i name="CSHIFT">      0.10000000</i>
   <i name="OMEGAMAX">     -1.00000000</i>
   <i name="DEG_THRESHOLD">      0.00200000</i>
   <i name="RTIME">     -0.10000000</i>
   <i name="WPLASMAI">      0.00000000</i>
   <v name="DFIELD">      0.00000000      0.00000000      0.00000000</v>
   <v name="WPLASMA">      0.00000000      0.00000000      0.00000000      0.00000000      0.00000000      0.00000000      0.00000000      0.00000000      0.00000000</v>
  </separator>
  <separator name="orbital magnetization" >
   <i type="logical" name="NUCIND"> F  </i>
   <v name="MAGPOS">      0.00000000      0.00000000      0.00000000</v>
   <i type="logical" name="LNICSALL"> T  </i>
   <i type="logical" name="ORBITALMAG"> F  </i>
   <i type="logical" name="LMAGBLOCH"> F  </i>
   <i type="logical" name="LCHIMAG"> F  </i>
   <i type="logical" name="LGAUGE"> T  </i>
   <i type="int" name="MAGATOM">     0</i>
   <v name="MAGDIPOL">      0.00000000      0.00000000      0.00000000</v>
   <v name="AVECCONST">      0.00000000      0.00000000      0.00000000</v>
  </separator>
  <separator name="response functions" >
   <i type="logical" name="LFINITE_TEMPERATURE"> F  </i>
   <i type="logical" name="LADDER"> F  </i>
   <i type="logical" name="LRPAFORCE"> F  </i>
   <i type="logical" name="LFXC"> F  </i>
   <i type="logical" name="LHARTREE"> T  </i>
   <i type="int" name="IBSE">     0</i>
   <v type="int" name="KPOINT">    -1     0     0     0</v>
   <i type="logical" name="LTCTC"> F  </i>
   <i type="logical" name="LTCTE"> F  </i>
   <i type="logical" name="LTETE"> F  </i>
   <i type="logical" name="LTRIPLET"> F  </i>
   <i type="logical" name="LFXCEPS"> F  </i>
   <i type="logical" name="LFXHEG"> F  </i>
   <i type="int" name="NATURALO">     2</i>
   <i type="logical" name="LHOLEGF"> F  </i>
   <i type="logical" name="L2ORDER"> F  </i>
   <i type="logical" name="LDMP1"> F  </i>
   <i type="logical" name="LMP2LT"> F  </i>
   <i type="logical" name="LSMP2LT"> F  </i>
   <i type="logical" name="LGWLF"> F  </i>
   <i name="ENCUTGW">     -2.00000000</i>
   <i name="ENCUTGWSOFT">     -2.00000000</i>
   <i name="ENCUTLF">     -1.00000000</i>
   <i type="logical" name="LESF_SPLINES"> F  </i>
   <i type="int" name="LMAXMP2">    -1</i>
   <i name="SCISSOR">      0.00000000</i>
   <i type="int" name="NOMEGA">     0</i>
   <i type="int" name="NOMEGAR">     0</i>
   <i type="int" name="NBANDSGW">    -1</i>
   <i type="int" name="NBANDSO">    -1</i>
   <i type="int" name="NBANDSV">    -1</i>
   <i type="int" name="NELMGW">     1</i>
   <i type="int" name="NELMHF">     1</i>
   <i type="int" name="DIM">     3</i>
   <i type="int" name="IESPILON">     4</i>
   <i type="int" name="ANTIRES">     0</i>
   <i name="OMEGAMAX">    -30.00000000</i>
   <i name="OMEGAMIN">    -30.00000000</i>
   <i name="OMEGATL">   -200.00000000</i>
   <i type="int" name="OMEGAGRID">     0</i>
   <i name="CSHIFT">     -0.10000000</i>
   <i type="logical" name="LSELFENERGY"> F  </i>
   <i type="logical" name="LSPECTRAL"> F  </i>
   <i type="logical" name="LSPECTRALGW"> F  </i>
   <i type="logical" name="LSINGLES"> F  </i>
   <i type="logical" name="LFERMIGW"> F  </i>
   <i type="logical" name="ODDONLYGW"> F  </i>
   <i type="logical" name="EVENONLYGW"> F  </i>
   <i type="int" name="NKREDLFX">     1</i>
   <i type="int" name="NKREDLFY">     1</i>
   <i type="int" name="NKREDLFZ">     1</i>
   <i type="int" name="MAXMEM">  2800</i>
   <i type="int" name="TELESCOPE">     0</i>
   <i type="int" name="NTAUPAR">    -1</i>
   <i type="int" name="NOMEGAPAR">    -1</i>
   <i name="DAMP_NEWTON">      0.80000001</i>
   <i name="LAMBDA">      1.00000000</i>
  </separator>
  <separator name="External order field" >
   <i name="OFIELD_KAPPA">      0.00000000</i>
   <v name="OFIELD_K">      0.00000000      0.00000000      0.00000000</v>
   <i name="OFIELD_Q6_NEAR">      0.00000000</i>
   <i name="OFIELD_Q6_FAR">      0.00000000</i>
   <i name="OFIELD_A">      0.00000000</i>
  </separator>
  <separator name="optional k-points parameters" >
   <i type="int" name="KPOINTS_OPT_MODE">     1</i>
   <i type="logical" name="LKPOINTS_OPT"> F  </i>
  </separator>
  <separator name="solvation model" >
   <i type="logical" name="LSOL"> F  </i>
  </separator>
 </parameters>
 <atominfo>
  <atoms>      74 </atoms>
  <types>       4 </types>
  <array name="atoms" >
   <dimension dim="1">ion</dimension>
   <field type="string">element</field>
   <field type="int">atomtype</field>
   <set>
    <rc><c>O </c><c>   1</c></rc>
    <rc><c>O </c><c>   1</c></rc>
    <rc><c>O </c><c>   1</c></rc>
    <rc><c>O </c><c>   1</c></rc>
    <rc><c>O </c><c>   1</c></rc>
    <rc><c>O </c><c>   1</c></rc>
    <rc><c>O </c><c>   1</c></rc>
    <rc><c>O </c><c>   1</c></rc>
    <rc><c>O </c><c>   1</c></rc>
    <rc><c>O </c><c>   1</c></rc>
    <rc><c>O </c><c>   1</c></rc>
    <rc><c>O </c><c>   1</c></rc>
    <rc><c>O </c><c>   1</c></rc>
    <rc><c>O </c><c>   1</c></rc>
    <rc><c>O </c><c>   1</c></rc>
    <rc><c>O </c><c>   1</c></rc>
    <rc><c>O </c><c>   1</c></rc>
    <rc><c>O </c><c>   1</c></rc>
    <rc><c>O </c><c>   1</c></rc>
    <rc><c>O </c><c>   1</c></rc>
    <rc><c>O </c><c>   1</c></rc>
    <rc><c>O </c><c>   1</c></rc>
    <rc><c>O </c><c>   1</c></rc>
    <rc><c>O </c><c>   1</c></rc>
    <rc><c>O </c><c>   1</c></rc>
    <rc><c>O </c><c>   1</c></rc>
    <rc><c>O </c><c>   1</c></rc>
    <rc><c>O </c><c>   1</c></rc>
    <rc><c>O </c><c>   1</c></rc>
    <rc><c>O </c><c>   1</c></rc>
    <rc><c>O </c><c>   1</c></rc>
    <rc><c>O </c><c>   1</c></rc>
    <rc><c>O </c><c>   1</c></rc>
    <rc><c>O </c><c>   1</c></rc>
    <rc><c>O </c><c>   1</c></rc>
    <rc><c>O </c><c>   1</c></rc>
    <rc><c>O </c><c>   1</c></rc>
    <rc><c>O </c><c>   1</c></rc>
    <rc><c>O </c><c>   1</c></rc>
    <rc><c>O </c><c>   1</c></rc>
    <rc><c>O </c><c>   1</c></rc>
    <rc><c>O </c><c>   1</c></rc>
    <rc><c>O </c><c>   1</c></rc>
    <rc><c>O </c><c>   1</c></rc>
    <rc><c>O </c><c>   1</c></rc>
    <rc><c>O </c><c>   1</c></rc>
    <rc><c>O </c><c>   1</c></rc>
    <rc><c>O </c><c>   1</c></rc>
    <rc><c>F </c><c>   2</c></rc>
    <rc><c>Al</c><c>   3</c></rc>
    <rc><c>Al</c><c>   3</c></rc>
    <rc><c>Al</c><c>   3</c></rc>
    <rc><c>Al</c><c>   3</c></rc>
    <rc><c>Al</c><c>   3</c></rc>
    <rc><c>Al</c><c>   3</c></rc>
    <rc><c>Al</c><c>   3</c></rc>
    <rc><c>Al</c><c>   3</c></rc>
    <rc><c>Al</c><c>   3</c></rc>
    <rc><c>Al</c><c>   3</c></rc>
    <rc><c>Al</c><c>   3</c></rc>
    <rc><c>Al</c><c>   3</c></rc>
    <rc><c>Al</c><c>   3</c></rc>
    <rc><c>Al</c><c>   3</c></rc>
    <rc><c>Al</c><c>   3</c></rc>
    <rc><c>Al</c><c>   3</c></rc>
    <rc><c>Al</c><c>   3</c></rc>
    <rc><c>Al</c><c>   3</c></rc>
    <rc><c>Al</c><c>   3</c></rc>
    <rc><c>Al</c><c>   3</c></rc>
    <rc><c>Al</c><c>   3</c></rc>
    <rc><c>Al</c><c>   3</c></rc>
    <rc><c>Al</c><c>   3</c></rc>
    <rc><c>Al</c><c>   3</c></rc>
    <rc><c>K </c><c>   4</c></rc>
   </set>
  </array>
  <array name="atomtypes" >
   <dimension dim="1">type</dimension>
   <field type="int">atomspertype</field>
   <field type="string">element</field>
   <field>mass</field>
   <field>valence</field>
   <field type="string">pseudopotential</field>
   <set>
    <rc><c>  48</c><c>O </c><c>     16.00000000</c><c>      6.00000000</c><c>  PAW_PBE O 08Apr2002                   </c></rc>
    <rc><c>   1</c><c>F </c><c>     18.99800000</c><c>      7.00000000</c><c>  PAW_PBE F 08Apr2002                   </c></rc>
    <rc><c>  24</c><c>Al</c><c>     26.98100000</c><c>      3.00000000</c><c>  PAW_PBE Al 04Jan2001                  </c></rc>
    <rc><c>   1</c><c>K </c><c>     39.09800000</c><c>      9.00000000</c><c>  PAW_PBE K_sv 06Sep2000                </c></rc>
   </set>
  </array>
 </atominfo>
 <structure name="initialpos" >
  <crystal>
   <varray name="basis" >
    <v>       9.61490200       0.00000000       0.00000000 </v>
    <v>       0.00000000       8.32674900       0.00000000 </v>
    <v>       0.00000000       0.00000000      21.56058900 </v>
   </varray>
   <i name="volume">   1726.15963408 </i>
   <varray name="rec_basis" >
    <v>       0.10400522       0.00000000       0.00000000 </v>
    <v>       0.00000000       0.12009489       0.00000000 </v>
    <v>       0.00000000       0.00000000       0.04638092 </v>
   </varray>
  </crystal>
  <varray name="positions" >
   <v>       0.17345600       0.98642100       0.00000000 </v>
   <v>       0.42345600       0.48642100       0.00000000 </v>
   <v>       0.09691200       0.50000000       0.10142900 </v>
   <v>       0.34691300       0.00000000       0.10142900 </v>
   <v>       0.15308800       0.33333300       0.00000000 </v>
   <v>       0.40308800       0.83333300       0.00000000 </v>
   <v>       0.17345600       0.68024600       0.00000000 </v>
   <v>       0.42345600       0.18024500       0.00000000 </v>
   <v>       0.07654400       0.15308700       0.10142900 </v>
   <v>       0.32654400       0.65308700       0.10142900 </v>
   <v>       0.07654400       0.84691300       0.10142900 </v>
   <v>       0.32654400       0.34691300       0.10142900 </v>
   <v>       0.17345600       0.31975500       0.20285800 </v>
   <v>       0.42345600       0.81975500       0.20285800 </v>
   <v>       0.11184412       0.83511109       0.30509833 </v>
   <v>       0.37145885       0.28962479       0.30302635 </v>
   <v>       0.15308700       0.66666700       0.20285800 </v>
   <v>       0.40308800       0.16666700       0.20285800 </v>
   <v>       0.17345600       0.01358000       0.20285800 </v>
   <v>       0.42345600       0.51358000       0.20285800 </v>
   <v>       0.06491186       0.48308338       0.30060106 </v>
   <v>       0.04536708       0.98150452       0.32438204 </v>
   <v>       0.15055824       0.09627731       0.33048357 </v>
   <v>       0.34261732       0.72184959       0.30243522 </v>
   <v>       0.67345600       0.98642100       0.00000000 </v>
   <v>       0.92345600       0.48642100       0.00000000 </v>
   <v>       0.59691300       0.50000000       0.10142900 </v>
   <v>       0.84691300       0.00000000       0.10142900 </v>
   <v>       0.65308800       0.33333300       0.00000000 </v>
   <v>       0.90308800       0.83333300       0.00000000 </v>
   <v>       0.67345600       0.68024500       0.00000000 </v>
   <v>       0.92345600       0.18024500       0.00000000 </v>
   <v>       0.57654400       0.15308700       0.10142900 </v>
   <v>       0.82654400       0.65308700       0.10142900 </v>
   <v>       0.57654400       0.84691300       0.10142900 </v>
   <v>       0.82654400       0.34691300       0.10142900 </v>
   <v>       0.67345600       0.31975500       0.20285800 </v>
   <v>       0.92345600       0.81975500       0.20285800 </v>
   <v>       0.60850529       0.83815181       0.30437371 </v>
   <v>       0.88697654       0.26108976       0.30465235 </v>
   <v>       0.65308800       0.66666700       0.20285800 </v>
   <v>       0.90308800       0.16666700       0.20285800 </v>
   <v>       0.67345600       0.01358000       0.20285800 </v>
   <v>       0.92345600       0.51357900       0.20285800 </v>
   <v>       0.59486420       0.48997727       0.29935867 </v>
   <v>       0.53248326       0.98353629       0.31881951 </v>
   <v>       0.62730909       0.11029246       0.32491761 </v>
   <v>       0.84843721       0.74716884       0.30290208 </v>
   <v>       0.55902481       0.47611910       0.36510893 </v>
   <v>       0.00000000       0.66666700       0.14070600 </v>
   <v>       0.25000000       0.16666700       0.14070600 </v>
   <v>       0.00000000       0.33333300       0.06215200 </v>
   <v>       0.25000000       0.83333300       0.06215200 </v>
   <v>       0.00000000       0.00000000       0.03927700 </v>
   <v>       0.25000000       0.50000000       0.03927700 </v>
   <v>       0.00000000       0.66666700       0.26500900 </v>
   <v>       0.25000000       0.16666700       0.26500900 </v>
   <v>       0.00000000       0.33333300       0.24213400 </v>
   <v>       0.25000000       0.83333300       0.24213400 </v>
   <v>       0.00000000       0.00000000       0.16358100 </v>
   <v>       0.25000000       0.50000000       0.16358100 </v>
   <v>       0.50000000       0.66666700       0.14070600 </v>
   <v>       0.75000000       0.16666700       0.14070600 </v>
   <v>       0.50000000       0.33333300       0.06215200 </v>
   <v>       0.75000000       0.83333300       0.06215200 </v>
   <v>       0.50000000       0.00000000       0.03927700 </v>
   <v>       0.75000000       0.50000000       0.03927700 </v>
   <v>       0.50000000       0.66666700       0.26500900 </v>
   <v>       0.75000000       0.16666700       0.26500900 </v>
   <v>       0.50000000       0.33333300       0.24213400 </v>
   <v>       0.75000000       0.83333300       0.24213400 </v>
   <v>       0.50000000       0.00000000       0.16358100 </v>
   <v>       0.75000000       0.50000000       0.16358100 </v>
   <v>       0.26202556       0.49429515       0.38569783 </v>
  </varray>
  <varray name="selective"  type="logical" >
   <v type="logical" >  F  F  F </v>
   <v type="logical" >  F  F  F </v>
   <v type="logical" >  F  F  F </v>
   <v type="logical" >  F  F  F </v>
   <v type="logical" >  F  F  F </v>
   <v type="logical" >  F  F  F </v>
   <v type="logical" >  F  F  F </v>
   <v type="logical" >  F  F  F </v>
   <v type="logical" >  F  F  F </v>
   <v type="logical" >  F  F  F </v>
   <v type="logical" >  F  F  F </v>
   <v type="logical" >  F  F  F </v>
   <v type="logical" >  F  F  F </v>
   <v type="logical" >  F  F  F </v>
   <v type="logical" >  T  T  T </v>
   <v type="logical" >  T  T  T </v>
   <v type="logical" >  F  F  F </v>
   <v type="logical" >  F  F  F </v>
   <v type="logical" >  F  F  F </v>
   <v type="logical" >  F  F  F </v>
   <v type="logical" >  T  T  T </v>
   <v type="logical" >  T  T  T </v>
   <v type="logical" >  T  T  T </v>
   <v type="logical" >  T  T  T </v>
   <v type="logical" >  F  F  F </v>
   <v type="logical" >  F  F  F </v>
   <v type="logical" >  F  F  F </v>
   <v type="logical" >  F  F  F </v>
   <v type="logical" >  F  F  F </v>
   <v type="logical" >  F  F  F </v>
   <v type="logical" >  F  F  F </v>
   <v type="logical" >  F  F  F </v>
   <v type="logical" >  F  F  F </v>
   <v type="logical" >  F  F  F </v>
   <v type="logical" >  F  F  F </v>
   <v type="logical" >  F  F  F </v>
   <v type="logical" >  F  F  F </v>
   <v type="logical" >  F  F  F </v>
   <v type="logical" >  T  T  T </v>
   <v type="logical" >  T  T  T </v>
   <v type="logical" >  F  F  F </v>
   <v type="logical" >  F  F  F </v>
   <v type="logical" >  F  F  F </v>
   <v type="logical" >  F  F  F </v>
   <v type="logical" >  T  T  T </v>
   <v type="logical" >  T  T  T </v>
   <v type="logical" >  T  T  T </v>
   <v type="logical" >  T  T  T </v>
   <v type="logical" >  T  T  T </v>
   <v type="logical" >  F  F  F </v>
   <v type="logical" >  F  F  F </v>
   <v type="logical" >  F  F  F </v>
   <v type="logical" >  F  F  F </v>
   <v type="logical" >  F  F  F </v>
   <v type="logical" >  F  F  F </v>
   <v type="logical" >  F  F  F </v>
   <v type="logical" >  F  F  F </v>
   <v type="logical" >  F  F  F </v>
   <v type="logical" >  F  F  F </v>
   <v type="logical" >  F  F  F </v>
   <v type="logical" >  F  F  F </v>
   <v type="logical" >  F  F  F </v>
   <v type="logical" >  F  F  F </v>
   <v type="logical" >  F  F  F </v>
   <v type="logical" >  F  F  F </v>
   <v type="logical" >  F  F  F </v>
   <v type="logical" >  F  F  F </v>
   <v type="logical" >  F  F  F </v>
   <v type="logical" >  F  F  F </v>
   <v type="logical" >  F  F  F </v>
   <v type="logical" >  F  F  F </v>
   <v type="logical" >  F  F  F </v>
   <v type="logical" >  F  F  F </v>
   <v type="logical" >  T  T  T </v>
  </varray>
  <nose>
   <v>      -3.00000000       0.00000000       0.00010000       0.00010000 </v>
  </nose>
 </structure>
 <calculation>
  <scstep>
   <time name="dav">   43.00    6.18</time>
   <time name="total">   46.59    6.70</time>
   <energy>
    <i name="alphaZ">    271.78674889 </i>
    <i name="ewald">  84073.05684624 </i>
    <i name="hartreedc">-105037.23848467 </i>
    <i name="XCdc">    783.02013843 </i>
    <i name="pawpsdc">  19356.41094894 </i>
    <i name="pawaedc"> -18675.89497373 </i>
    <i name="eentropy">      0.00000000 </i>
    <i name="bandstr">   -678.01704468 </i>
    <i name="atom">  23472.75423047 </i>
    <i name="e_fr_energy">   3565.87840989 </i>
    <i name="e_wo_entrp">   3565.87840989 </i>
    <i name="e_0_energy">   3565.87840989 </i>
   </energy>
  </scstep>
  <scstep>
   <time name="dav">   53.00    7.59</time>
   <time name="total">   53.12    7.61</time>
   <energy>
    <i name="e_fr_energy">     -5.26799822 </i>
    <i name="e_wo_entrp">     -5.26799822 </i>
    <i name="e_0_energy">     -5.26799822 </i>
   </energy>
  </scstep>
  <scstep>
   <time name="dav">   46.75    6.69</time>
   <time name="total">   46.86    6.71</time>
   <energy>
    <i name="e_fr_energy">   -524.00341055 </i>
    <i name="e_wo_entrp">   -524.00341055 </i>
    <i name="e_0_energy">   -524.00341055 </i>
   </energy>
  </scstep>
  <scstep>
   <time name="dav">   48.92    7.01</time>
   <time name="total">   49.04    7.02</time>
   <energy>
    <i name="e_fr_energy">   -539.18718717 </i>
    <i name="e_wo_entrp">   -539.18718717 </i>
    <i name="e_0_energy">   -539.18718717 </i>
   </energy>
  </scstep>
  <scstep>
   <time name="dav">   51.40    7.36</time>
   <time name="total">   52.74    7.55</time>
   <energy>
    <i name="e_fr_energy">   -539.69348710 </i>
    <i name="e_wo_entrp">   -539.69348710 </i>
    <i name="e_0_energy">   -539.69348710 </i>
   </energy>
  </scstep>
  <scstep>
   <time name="diag">    5.16    0.74</time>
   <time name="diis">    4.28    1.75</time>
   <time name="orth">    0.72    0.37</time>
   <time name="total">   14.06    3.50</time>
   <energy>
    <i name="e_fr_energy">   -499.03401371 </i>
    <i name="e_wo_entrp">   -499.03401371 </i>
    <i name="e_0_energy">   -499.03401371 </i>
   </energy>
  </scstep>
  <scstep>
   <time name="diag">    5.03    0.72</time>
   <time name="diis">    4.32    1.77</time>
   <time name="orth">    0.72    0.37</time>
   <time name="total">   13.98    3.51</time>
   <energy>
    <i name="e_fr_energy">   -484.53483345 </i>
    <i name="e_wo_entrp">   -484.53483345 </i>
    <i name="e_0_energy">   -484.53483345 </i>
   </energy>
  </scstep>
  <scstep>
   <time name="diag">    4.99    0.71</time>
   <time name="diis">    4.34    1.78</time>
   <time name="orth">    0.72    0.37</time>
   <time name="total">   13.92    3.50</time>
   <energy>
    <i name="e_fr_energy">   -483.91799027 </i>
    <i name="e_wo_entrp">   -483.91799027 </i>
    <i name="e_0_energy">   -483.91799027 </i>
   </energy>
  </scstep>
  <scstep>
   <time name="diag">    5.02    0.72</time>
   <time name="diis">    4.39    1.81</time>
   <time name="orth">    0.73    0.37</time>
   <time name="total">   13.98    3.54</time>
   <energy>
    <i name="e_fr_energy">   -481.03770658 </i>
    <i name="e_wo_entrp">   -481.03770658 </i>
    <i name="e_0_energy">   -481.03770658 </i>
   </energy>
  </scstep>
  <scstep>
   <time name="diag">    4.99    0.71</time>
   <time name="diis">    4.64    1.93</time>
   <time name="orth">    0.72    0.37</time>
   <time name="total">   14.20    3.66</time>
   <energy>
    <i name="e_fr_energy">   -485.25254076 </i>
    <i name="e_wo_entrp">   -485.25254076 </i>
    <i name="e_0_energy">   -485.25254076 </i>
   </energy>
  </scstep>
  <scstep>
   <time name="diag">    4.99    0.71</time>
   <time name="diis">    4.44    1.83</time>
   <time name="orth">    0.73    0.37</time>
   <time name="total">   13.98    3.55</time>
   <energy>
    <i name="e_fr_energy">   -481.88158510 </i>
    <i name="e_wo_entrp">   -481.88158510 </i>
    <i name="e_0_energy">   -481.88158510 </i>
   </energy>
  </scstep>
  <scstep>
   <time name="diag">    4.98    0.71</time>
   <time name="diis">    4.55    1.89</time>
   <time name="orth">    0.72    0.37</time>
   <time name="total">   14.11    3.61</time>
   <energy>
    <i name="e_fr_energy">   -480.08494666 </i>
    <i name="e_wo_entrp">   -480.08494666 </i>
    <i name="e_0_energy">   -480.08494666 </i>
   </energy>
  </scstep>
  <scstep>
   <time name="diag">    4.97    0.71</time>
   <time name="diis">    4.77    1.98</time>
   <time name="orth">    0.73    0.37</time>
   <time name="total">   14.30    3.70</time>
   <energy>
    <i name="e_fr_energy">   -480.62333360 </i>
    <i name="e_wo_entrp">   -480.62333360 </i>
    <i name="e_0_energy">   -480.62333360 </i>
   </energy>
  </scstep>
  <scstep>
   <time name="diag">    4.98    0.72</time>
   <time name="diis">    4.82    2.00</time>
   <time name="orth">    0.74    0.37</time>
   <time name="total">   14.39    3.74</time>
   <energy>
    <i name="e_fr_energy">   -479.88051216 </i>
    <i name="e_wo_entrp">   -479.88051216 </i>
    <i name="e_0_energy">   -479.88051216 </i>
   </energy>
  </scstep>
  <scstep>
   <time name="diag">    4.99    0.72</time>
   <time name="diis">    4.82    2.01</time>
   <time name="orth">    0.73    0.37</time>
   <time name="total">   14.40    3.75</time>
   <energy>
    <i name="e_fr_energy">   -479.37192267 </i>
    <i name="e_wo_entrp">   -479.37192267 </i>
    <i name="e_0_energy">   -479.37192267 </i>
   </energy>
  </scstep>
  <scstep>
   <time name="diag">    5.00    0.72</time>
   <time name="diis">    4.49    1.86</time>
   <time name="orth">    0.73    0.37</time>
   <time name="total">   14.05    3.59</time>
   <energy>
    <i name="e_fr_energy">   -479.05772475 </i>
    <i name="e_wo_entrp">   -479.05772475 </i>
    <i name="e_0_energy">   -479.05772475 </i>
   </energy>
  </scstep>
  <scstep>
   <time name="diag">    5.00    0.72</time>
   <time name="diis">    4.38    1.80</time>
   <time name="orth">    0.73    0.37</time>
   <time name="total">   13.96    3.53</time>
   <energy>
    <i name="e_fr_energy">   -478.96073163 </i>
    <i name="e_wo_entrp">   -478.96073163 </i>
    <i name="e_0_energy">   -478.96073163 </i>
   </energy>
  </scstep>
  <scstep>
   <time name="diag">    4.99    0.72</time>
   <time name="diis">    4.52    1.87</time>
   <time name="orth">    0.73    0.37</time>
   <time name="total">   14.14    3.61</time>
   <energy>
    <i name="e_fr_energy">   -478.68130344 </i>
    <i name="e_wo_entrp">   -478.68130344 </i>
    <i name="e_0_energy">   -478.68130344 </i>
   </energy>
  </scstep>
  <scstep>
   <time name="diag">    5.01    0.72</time>
   <time name="diis">    4.63    1.93</time>
   <time name="orth">    0.73    0.37</time>
   <time name="total">   14.26    3.66</time>
   <energy>
    <i name="e_fr_energy">   -478.73759337 </i>
    <i name="e_wo_entrp">   -478.73759337 </i>
    <i name="e_0_energy">   -478.73759337 </i>
   </energy>
  </scstep>
  <scstep>
   <time name="diag">    5.12    0.73</time>
   <time name="diis">    4.42    1.82</time>
   <time name="orth">    0.72    0.37</time>
   <time name="total">   15.49    3.77</time>
   <energy>
    <i name="e_fr_energy">   -478.63617013 </i>
    <i name="e_wo_entrp">   -478.63617013 </i>
    <i name="e_0_energy">   -478.63617013 </i>
   </energy>
  </scstep>
  <scstep>
   <time name="diag">    5.00    0.72</time>
   <time name="diis">    5.06    2.15</time>
   <time name="orth">    0.73    0.37</time>
   <time name="total">   14.72    3.90</time>
   <energy>
    <i name="e_fr_energy">   -478.59014384 </i>
    <i name="e_wo_entrp">   -478.59014384 </i>
    <i name="e_0_energy">   -478.59014384 </i>
   </energy>
  </scstep>
  <scstep>
   <time name="diag">    5.00    0.72</time>
   <time name="diis">    4.99    2.11</time>
   <time name="orth">    0.73    0.37</time>
   <time name="total">   14.63    3.86</time>
   <energy>
    <i name="e_fr_energy">   -478.56383267 </i>
    <i name="e_wo_entrp">   -478.56383267 </i>
    <i name="e_0_energy">   -478.56383267 </i>
   </energy>
  </scstep>
  <scstep>
   <time name="diag">    5.00    0.72</time>
   <time name="diis">    4.71    1.97</time>
   <time name="orth">    0.73    0.37</time>
   <time name="total">   14.40    3.72</time>
   <energy>
    <i name="e_fr_energy">   -478.52136829 </i>
    <i name="e_wo_entrp">   -478.52136829 </i>
    <i name="e_0_energy">   -478.52136829 </i>
   </energy>
  </scstep>
  <scstep>
   <time name="diag">    5.00    0.72</time>
   <time name="diis">    4.35    1.79</time>
   <time name="orth">    0.73    0.37</time>
   <time name="total">   13.95    3.53</time>
   <energy>
    <i name="e_fr_energy">   -478.50925541 </i>
    <i name="e_wo_entrp">   -478.50925541 </i>
    <i name="e_0_energy">   -478.50925541 </i>
   </energy>
  </scstep>
  <scstep>
   <time name="diag">    4.99    0.72</time>
   <time name="diis">    4.54    1.88</time>
   <time name="orth">    0.73    0.37</time>
   <time name="total">   14.17    3.62</time>
   <energy>
    <i name="e_fr_energy">   -478.50030685 </i>
    <i name="e_wo_entrp">   -478.50030685 </i>
    <i name="e_0_energy">   -478.50030685 </i>
   </energy>
  </scstep>
  <scstep>
   <time name="diag">    5.00    0.72</time>
   <time name="diis">    4.89    2.07</time>
   <time name="orth">    0.72    0.37</time>
   <time name="total">   14.54    3.81</time>
   <energy>
    <i name="e_fr_energy">   -478.50078297 </i>
    <i name="e_wo_entrp">   -478.50078297 </i>
    <i name="e_0_energy">   -478.50078297 </i>
   </energy>
  </scstep>
  <scstep>
   <time name="diag">    5.01    0.72</time>
   <time name="diis">    4.75    1.99</time>
   <time name="orth">    0.72    0.37</time>
   <time name="total">   14.49    3.75</time>
   <energy>
    <i name="e_fr_energy">   -478.48621226 </i>
    <i name="e_wo_entrp">   -478.48621226 </i>
    <i name="e_0_energy">   -478.48621226 </i>
   </energy>
  </scstep>
  <scstep>
   <time name="diag">    5.01    0.72</time>
   <time name="diis">    4.47    1.85</time>
   <time name="orth">    0.73    0.37</time>
   <time name="total">   14.78    3.69</time>
   <energy>
    <i name="e_fr_energy">   -478.48329449 </i>
    <i name="e_wo_entrp">   -478.48329449 </i>
    <i name="e_0_energy">   -478.48329449 </i>
   </energy>
  </scstep>
  <scstep>
   <time name="diag">    5.02    0.72</time>
   <time name="diis">    4.73    1.97</time>
   <time name="orth">    0.73    0.37</time>
   <time name="total">   14.36    3.70</time>
   <energy>
    <i name="e_fr_energy">   -478.48248322 </i>
    <i name="e_wo_entrp">   -478.48248322 </i>
    <i name="e_0_energy">   -478.48248322 </i>
   </energy>
  </scstep>
  <scstep>
   <time name="diag">    4.97    0.71</time>
   <time name="diis">    4.91    2.07</time>
   <time name="orth">    0.72    0.37</time>
   <time name="total">   14.50    3.80</time>
   <energy>
    <i name="e_fr_energy">   -478.47521148 </i>
    <i name="e_wo_entrp">   -478.47521148 </i>
    <i name="e_0_energy">   -478.47521148 </i>
   </energy>
  </scstep>
  <scstep>
   <time name="diag">    5.00    0.72</time>
   <time name="diis">    4.82    2.03</time>
   <time name="orth">    0.72    0.37</time>
   <time name="total">   14.45    3.77</time>
   <energy>
    <i name="e_fr_energy">   -478.46350429 </i>
    <i name="e_wo_entrp">   -478.46350429 </i>
    <i name="e_0_energy">   -478.46350429 </i>
   </energy>
  </scstep>
  <scstep>
   <time name="diag">    5.18    0.74</time>
   <time name="diis">    4.92    2.08</time>
   <time name="orth">    0.73    0.37</time>
   <time name="total">   14.74    3.84</time>
   <energy>
    <i name="e_fr_energy">   -478.45916659 </i>
    <i name="e_wo_entrp">   -478.45916659 </i>
    <i name="e_0_energy">   -478.45916659 </i>
   </energy>
  </scstep>
  <scstep>
   <time name="diag">    4.99    0.72</time>
   <time name="diis">    4.98    2.11</time>
   <time name="orth">    0.72    0.37</time>
   <time name="total">   14.71    3.86</time>
   <energy>
    <i name="e_fr_energy">   -478.45116096 </i>
    <i name="e_wo_entrp">   -478.45116096 </i>
    <i name="e_0_energy">   -478.45116096 </i>
   </energy>
  </scstep>
  <scstep>
   <time name="diag">    4.99    0.71</time>
   <time name="diis">    4.87    2.04</time>
   <time name="orth">    0.73    0.37</time>
   <time name="total">   14.77    3.82</time>
   <energy>
    <i name="e_fr_energy">   -478.44165368 </i>
    <i name="e_wo_entrp">   -478.44165368 </i>
    <i name="e_0_energy">   -478.44165368 </i>
   </energy>
  </scstep>
  <scstep>
   <time name="diag">    4.98    0.71</time>
   <time name="diis">    5.38    2.29</time>
   <time name="orth">    0.74    0.37</time>
   <time name="total">   14.97    4.03</time>
   <energy>
    <i name="e_fr_energy">   -478.43794130 </i>
    <i name="e_wo_entrp">   -478.43794130 </i>
    <i name="e_0_energy">   -478.43794130 </i>
   </energy>
  </scstep>
  <scstep>
   <time name="diag">    4.93    0.72</time>
   <time name="diis">    5.55    2.38</time>
   <time name="orth">    0.73    0.37</time>
   <time name="total">   15.21    4.13</time>
   <energy>
    <i name="e_fr_energy">   -478.43073833 </i>
    <i name="e_wo_entrp">   -478.43073833 </i>
    <i name="e_0_energy">   -478.43073833 </i>
   </energy>
  </scstep>
  <scstep>
   <time name="diag">    4.99    0.72</time>
   <time name="diis">    5.60    2.41</time>
   <time name="orth">    0.73    0.37</time>
   <time name="total">   15.23    4.15</time>
   <energy>
    <i name="e_fr_energy">   -478.42506068 </i>
    <i name="e_wo_entrp">   -478.42506068 </i>
    <i name="e_0_energy">   -478.42506068 </i>
   </energy>
  </scstep>
  <scstep>
   <time name="diag">    5.20    0.75</time>
   <time name="diis">    4.79    2.00</time>
   <time name="orth">    0.73    0.37</time>
   <time name="total">   14.71    3.78</time>
   <energy>
    <i name="e_fr_energy">   -478.42567022 </i>
    <i name="e_wo_entrp">   -478.42567022 </i>
    <i name="e_0_energy">   -478.42567022 </i>
   </energy>
  </scstep>
  <scstep>
   <time name="diag">    4.96    0.71</time>
   <time name="diis">    4.71    1.97</time>
   <time name="orth">    0.72    0.37</time>
   <time name="total">   14.35    3.71</time>
   <energy>
    <i name="e_fr_energy">   -478.42548117 </i>
    <i name="e_wo_entrp">   -478.42548117 </i>
    <i name="e_0_energy">   -478.42548117 </i>
   </energy>
  </scstep>
  <scstep>
   <time name="diag">    4.99    0.72</time>
   <time name="diis">    4.90    2.06</time>
   <time name="orth">    0.73    0.37</time>
   <time name="total">   14.65    3.82</time>
   <energy>
    <i name="e_fr_energy">   -478.42879439 </i>
    <i name="e_wo_entrp">   -478.42879439 </i>
    <i name="e_0_energy">   -478.42879439 </i>
   </energy>
  </scstep>
  <scstep>
   <time name="diag">    5.03    0.73</time>
   <time name="diis">    4.65    1.93</time>
   <time name="orth">    0.73    0.37</time>
   <time name="total">   14.39    3.69</time>
   <energy>
    <i name="e_fr_energy">   -478.43174835 </i>
    <i name="e_wo_entrp">   -478.43174835 </i>
    <i name="e_0_energy">   -478.43174835 </i>
   </energy>
  </scstep>
  <scstep>
   <time name="diag">    4.97    0.72</time>
   <time name="diis">    4.82    2.02</time>
   <time name="orth">    0.73    0.37</time>
   <time name="total">   14.50    3.77</time>
   <energy>
    <i name="e_fr_energy">   -478.43490386 </i>
    <i name="e_wo_entrp">   -478.43490386 </i>
    <i name="e_0_energy">   -478.43490386 </i>
   </energy>
  </scstep>
  <scstep>
   <time name="diag">    4.97    0.71</time>
   <time name="diis">    4.79    2.00</time>
   <time name="orth">    0.74    0.37</time>
   <time name="total">   14.48    3.75</time>
   <energy>
    <i name="e_fr_energy">   -478.43671644 </i>
    <i name="e_wo_entrp">   -478.43671644 </i>
    <i name="e_0_energy">   -478.43671644 </i>
   </energy>
  </scstep>
  <scstep>
   <time name="diag">    5.11    0.73</time>
   <time name="diis">    4.85    2.02</time>
   <time name="orth">    0.74    0.37</time>
   <time name="total">   14.71    3.79</time>
   <energy>
    <i name="e_fr_energy">   -478.43793897 </i>
    <i name="e_wo_entrp">   -478.43793897 </i>
    <i name="e_0_energy">   -478.43793897 </i>
   </energy>
  </scstep>
  <scstep>
   <time name="diag">    5.00    0.72</time>
   <time name="diis">    4.61    1.90</time>
   <time name="orth">    0.74    0.37</time>
   <time name="total">   14.44    3.67</time>
   <energy>
    <i name="e_fr_energy">   -478.43860723 </i>
    <i name="e_wo_entrp">   -478.43860723 </i>
    <i name="e_0_energy">   -478.43860723 </i>
   </energy>
  </scstep>
  <scstep>
   <time name="diag">    5.01    0.72</time>
   <time name="diis">    4.39    1.79</time>
   <time name="orth">    0.73    0.37</time>
   <time name="total">   14.26    3.57</time>
   <energy>
    <i name="e_fr_energy">   -478.43906253 </i>
    <i name="e_wo_entrp">   -478.43906253 </i>
    <i name="e_0_energy">   -478.43906253 </i>
   </energy>
  </scstep>
  <scstep>
   <time name="diag">    5.03    0.72</time>
   <time name="diis">    4.57    1.90</time>
   <time name="orth">    0.73    0.37</time>
   <time name="total">   14.41    3.67</time>
   <energy>
    <i name="e_fr_energy">   -478.43962813 </i>
    <i name="e_wo_entrp">   -478.43962813 </i>
    <i name="e_0_energy">   -478.43962813 </i>
   </energy>
  </scstep>
  <scstep>
   <time name="diag">    5.00    0.72</time>
   <time name="diis">    4.65    1.94</time>
   <time name="orth">    0.72    0.37</time>
   <time name="total">   14.51    3.71</time>
   <energy>
    <i name="e_fr_energy">   -478.44017299 </i>
    <i name="e_wo_entrp">   -478.44017299 </i>
    <i name="e_0_energy">   -478.44017299 </i>
   </energy>
  </scstep>
  <scstep>
   <time name="diag">    4.97    0.71</time>
   <time name="diis">    4.52    1.87</time>
   <time name="orth">    0.72    0.37</time>
   <time name="total">   14.66    3.68</time>
   <energy>
    <i name="e_fr_energy">   -478.44047568 </i>
    <i name="e_wo_entrp">   -478.44047568 </i>
    <i name="e_0_energy">   -478.44047568 </i>
   </energy>
  </scstep>
  <scstep>
   <time name="diag">    5.01    0.72</time>
   <time name="diis">    3.98    1.60</time>
   <time name="orth">    0.72    0.37</time>
   <time name="total">   13.88    3.37</time>
   <energy>
    <i name="e_fr_energy">   -478.44055363 </i>
    <i name="e_wo_entrp">   -478.44055363 </i>
    <i name="e_0_energy">   -478.44055363 </i>
   </energy>
  </scstep>
  <scstep>
   <time name="diag">    5.00    0.72</time>
   <time name="diis">    3.79    1.50</time>
   <time name="orth">    0.73    0.37</time>
   <time name="total">   13.83    3.30</time>
   <energy>
    <i name="e_fr_energy">   -478.44059006 </i>
    <i name="e_wo_entrp">   -478.44059006 </i>
    <i name="e_0_energy">   -478.44059006 </i>
   </energy>
  </scstep>
  <scstep>
   <time name="diag">    4.94    0.71</time>
   <time name="diis">    3.20    1.20</time>
   <time name="orth">    0.72    0.37</time>
   <time name="total">   12.98    2.96</time>
   <energy>
    <i name="e_fr_energy">   -478.44060713 </i>
    <i name="e_wo_entrp">   -478.44060713 </i>
    <i name="e_0_energy">   -478.44060713 </i>
   </energy>
  </scstep>
  <scstep>
   <time name="diag">    4.95    0.71</time>
   <time name="diis">    3.24    1.23</time>
   <time name="orth">    0.73    0.37</time>
   <time name="total">   12.97    2.99</time>
   <energy>
    <i name="e_fr_energy">   -478.44061825 </i>
    <i name="e_wo_entrp">   -478.44061825 </i>
    <i name="e_0_energy">   -478.44061825 </i>
   </energy>
  </scstep>
  <scstep>
   <time name="diag">    4.98    0.72</time>
   <time name="diis">    3.21    1.22</time>
   <time name="orth">    0.73    0.37</time>
   <time name="total">   13.02    2.99</time>
   <energy>
    <i name="e_fr_energy">   -478.44062622 </i>
    <i name="e_wo_entrp">   -478.44062622 </i>
    <i name="e_0_energy">   -478.44062622 </i>
   </energy>
  </scstep>
  <scstep>
   <time name="diag">    4.97    0.71</time>
   <time name="diis">    3.19    1.20</time>
   <time name="orth">    0.72    0.37</time>
   <time name="total">   13.09    2.98</time>
   <energy>
    <i name="e_fr_energy">   -478.44063029 </i>
    <i name="e_wo_entrp">   -478.44063029 </i>
    <i name="e_0_energy">   -478.44063029 </i>
   </energy>
  </scstep>
  <scstep>
   <time name="diag">    4.97    0.71</time>
   <time name="diis">    3.01    1.10</time>
   <time name="orth">    0.72    0.37</time>
   <time name="total">   12.74    2.86</time>
   <energy>
    <i name="e_fr_energy">   -478.44063196 </i>
    <i name="e_wo_entrp">   -478.44063196 </i>
    <i name="e_0_energy">   -478.44063196 </i>
   </energy>
  </scstep>
  <scstep>
   <time name="diag">    5.06    0.73</time>
   <time name="diis">    2.76    0.97</time>
   <time name="orth">    0.74    0.37</time>
   <time name="total">   11.72    2.53</time>
   <energy>
    <i name="alphaZ">    271.78674889 </i>
    <i name="ewald">  84073.05684624 </i>
    <i name="hartreedc">-106027.81084502 </i>
    <i name="XCdc">    835.32896642 </i>
    <i name="pawpsdc">  29294.26933806 </i>
    <i name="pawaedc"> -28624.91786712 </i>
    <i name="eentropy">      0.00000000 </i>
    <i name="bandstr">  -3772.90805037 </i>
    <i name="atom">  23472.75423047 </i>
    <i name="e_fr_energy">   -478.44063243 </i>
    <i name="e_wo_entrp">   -478.44063243 </i>
    <i name="e_0_energy">   -478.44063243 </i>
   </energy>
  </scstep>
  <structure>
   <crystal>
    <varray name="basis" >
     <v>       9.61490200       0.00000000       0.00000000 </v>
     <v>       0.00000000       8.32674900       0.00000000 </v>
     <v>       0.00000000       0.00000000      21.56058900 </v>
    </varray>
    <i name="volume">   1726.15963408 </i>
    <varray name="rec_basis" >
     <v>       0.10400522       0.00000000       0.00000000 </v>
     <v>       0.00000000       0.12009489       0.00000000 </v>
     <v>       0.00000000       0.00000000       0.04638092 </v>
    </varray>
   </crystal>
   <varray name="positions" >
    <v>       0.17345600       0.98642100       0.00000000 </v>
    <v>       0.42345600       0.48642100       0.00000000 </v>
    <v>       0.09691200       0.50000000       0.10142900 </v>
    <v>       0.34691300       0.00000000       0.10142900 </v>
    <v>       0.15308800       0.33333300       0.00000000 </v>
    <v>       0.40308800       0.83333300       0.00000000 </v>
    <v>       0.17345600       0.68024600       0.00000000 </v>
    <v>       0.42345600       0.18024500       0.00000000 </v>
    <v>       0.07654400       0.15308700       0.10142900 </v>
    <v>       0.32654400       0.65308700       0.10142900 </v>
    <v>       0.07654400       0.84691300       0.10142900 </v>
    <v>       0.32654400       0.34691300       0.10142900 </v>
    <v>       0.17345600       0.31975500       0.20285800 </v>
    <v>       0.42345600       0.81975500       0.20285800 </v>
    <v>       0.11184412       0.83511109       0.30509833 </v>
    <v>       0.37145885       0.28962479       0.30302635 </v>
    <v>       0.15308700       0.66666700       0.20285800 </v>
    <v>       0.40308800       0.16666700       0.20285800 </v>
    <v>       0.17345600       0.01358000       0.20285800 </v>
    <v>       0.42345600       0.51358000       0.20285800 </v>
    <v>       0.06491186       0.48308338       0.30060106 </v>
    <v>       0.04536708       0.98150452       0.32438204 </v>
    <v>       0.15055824       0.09627731       0.33048357 </v>
    <v>       0.34261732       0.72184959       0.30243522 </v>
    <v>       0.67345600       0.98642100       0.00000000 </v>
    <v>       0.92345600       0.48642100       0.00000000 </v>
    <v>       0.59691300       0.50000000       0.10142900 </v>
    <v>       0.84691300       0.00000000       0.10142900 </v>
    <v>       0.65308800       0.33333300       0.00000000 </v>
    <v>       0.90308800       0.83333300       0.00000000 </v>
    <v>       0.67345600       0.68024500       0.00000000 </v>
    <v>       0.92345600       0.18024500       0.00000000 </v>
    <v>       0.57654400       0.15308700       0.10142900 </v>
    <v>       0.82654400       0.65308700       0.10142900 </v>
    <v>       0.57654400       0.84691300       0.10142900 </v>
    <v>       0.82654400       0.34691300       0.10142900 </v>
    <v>       0.67345600       0.31975500       0.20285800 </v>
    <v>       0.92345600       0.81975500       0.20285800 </v>
    <v>       0.60850529       0.83815181       0.30437371 </v>
    <v>       0.88697654       0.26108976       0.30465235 </v>
    <v>       0.65308800       0.66666700       0.20285800 </v>
    <v>       0.90308800       0.16666700       0.20285800 </v>
    <v>       0.67345600       0.01358000       0.20285800 </v>
    <v>       0.92345600       0.51357900       0.20285800 </v>
    <v>       0.59486420       0.48997727       0.29935867 </v>
    <v>       0.53248326       0.98353629       0.31881951 </v>
    <v>       0.62730909       0.11029246       0.32491761 </v>
    <v>       0.84843721       0.74716884       0.30290208 </v>
    <v>       0.55902481       0.47611910       0.36510893 </v>
    <v>       0.00000000       0.66666700       0.14070600 </v>
    <v>       0.25000000       0.16666700       0.14070600 </v>
    <v>       0.00000000       0.33333300       0.06215200 </v>
    <v>       0.25000000       0.83333300       0.06215200 </v>
    <v>       0.00000000       0.00000000       0.03927700 </v>
    <v>       0.25000000       0.50000000       0.03927700 </v>
    <v>       0.00000000       0.66666700       0.26500900 </v>
    <v>       0.25000000       0.16666700       0.26500900 </v>
    <v>       0.00000000       0.33333300       0.24213400 </v>
    <v>       0.25000000       0.83333300       0.24213400 </v>
    <v>       0.00000000       0.00000000       0.16358100 </v>
    <v>       0.25000000       0.50000000       0.16358100 </v>
    <v>       0.50000000       0.66666700       0.14070600 </v>
    <v>       0.75000000       0.16666700       0.14070600 </v>
    <v>       0.50000000       0.33333300       0.06215200 </v>
    <v>       0.75000000       0.83333300       0.06215200 </v>
    <v>       0.50000000       0.00000000       0.03927700 </v>
    <v>       0.75000000       0.50000000       0.03927700 </v>
    <v>       0.50000000       0.66666700       0.26500900 </v>
    <v>       0.75000000       0.16666700       0.26500900 </v>
    <v>       0.50000000       0.33333300       0.24213400 </v>
    <v>       0.75000000       0.83333300       0.24213400 </v>
    <v>       0.50000000       0.00000000       0.16358100 </v>
    <v>       0.75000000       0.50000000       0.16358100 </v>
    <v>       0.26202556       0.49429515       0.38569783 </v>
   </varray>
  </structure>
  <varray name="forces" >
   <v>      -0.02632172      -0.57625116       0.42632477 </v>
   <v>      -0.03400622      -0.60536595       0.40224966 </v>
   <v>      -0.01835063       0.25338673       0.71596958 </v>
   <v>      -0.17902014       0.28493862       0.72463426 </v>
   <v>      -0.51358291       0.29483805       0.36477301 </v>
   <v>      -0.51561621       0.34328459       0.38362104 </v>
   <v>       0.50682934       0.27648707       0.39715038 </v>
   <v>       0.56163242       0.25827031       0.38629583 </v>
   <v>       0.33459696      -0.18045258       0.92727627 </v>
   <v>       0.28108068      -0.07140435       0.71613496 </v>
   <v>      -0.19433470      -0.12482221       0.76189669 </v>
   <v>      -0.26668509      -0.25082170       0.82403629 </v>
   <v>      -0.48275776      -0.99453837       0.93623580 </v>
   <v>       0.37984642       1.03845469      -0.68713820 </v>
   <v>       0.00104627       0.04725988      -0.03065805 </v>
   <v>       0.01228698      -0.00584325      -0.03959086 </v>
   <v>      -0.02893720       0.34159466       0.24201532 </v>
   <v>       0.46417778      -1.24142526      -0.62012335 </v>
   <v>       0.59867819       0.03647055       1.49128792 </v>
   <v>       0.27464123      -0.18789521       0.32589371 </v>
   <v>      -0.05105325      -0.00797932       0.00811557 </v>
   <v>      -0.05978310       0.02631920       0.01155997 </v>
   <v>       0.01220807      -0.02362673       0.00806632 </v>
   <v>      -0.01422505      -0.00982161       0.00685008 </v>
   <v>      -0.01496301      -0.59435461       0.41498816 </v>
   <v>      -0.02205678      -0.61341775       0.40259678 </v>
   <v>      -0.00987865       0.25982564       0.82127843 </v>
   <v>      -0.14437160       0.29746165       0.76367863 </v>
   <v>      -0.50072534       0.32122134       0.40175660 </v>
   <v>      -0.50989999       0.34250993       0.43996080 </v>
   <v>       0.49802778       0.28896079       0.36242049 </v>
   <v>       0.55865549       0.26046497       0.42561981 </v>
   <v>       0.41481575      -0.12785666       0.94728422 </v>
   <v>       0.24576751       0.01052948       0.65804132 </v>
   <v>      -0.12246337      -0.15600636       0.77778061 </v>
   <v>      -0.32933912      -0.34249886       0.86265290 </v>
   <v>      -0.52102788      -0.64313621       1.41809942 </v>
   <v>       0.32475186       1.06989234      -0.86845358 </v>
   <v>       0.00193032       0.01744239      -0.00432337 </v>
   <v>       0.04703646      -0.02251158       0.04064282 </v>
   <v>      -0.10103877       0.03473553       0.60724840 </v>
   <v>       0.22316033      -1.13682204      -0.86517882 </v>
   <v>       0.77229628       0.07096706       1.32353991 </v>
   <v>      -0.81991378      -0.07521930      -0.41981545 </v>
   <v>       0.01055894       0.00550738      -0.00301372 </v>
   <v>      -0.00974024      -0.00949872      -0.01350793 </v>
   <v>      -0.00979060       0.01067676      -0.00330626 </v>
   <v>       0.04914104      -0.00437901      -0.04464763 </v>
   <v>      -0.00316628      -0.00090933       0.00635159 </v>
   <v>      -0.08663607      -0.26944749      -0.59415334 </v>
   <v>       0.28235453       0.20429483      -1.12100534 </v>
   <v>       0.00858602       0.07460593      -1.82048730 </v>
   <v>       0.06650844      -0.04860149      -1.83497705 </v>
   <v>       0.00827451       0.00715723      -0.92518600 </v>
   <v>      -0.00848643       0.01066493      -0.79904386 </v>
   <v>      -0.72976958      -0.72169626       0.77627759 </v>
   <v>       1.56170285       1.94953700      -0.87656884 </v>
   <v>      -0.96449822       1.80438070       0.95310623 </v>
   <v>       0.84719592      -2.32414642      -0.21167427 </v>
   <v>      -0.35274491      -0.16807500      -0.86513368 </v>
   <v>       0.08498899       0.22163523      -0.29994953 </v>
   <v>      -0.17154215       0.01344830      -0.74039329 </v>
   <v>       0.20502079       0.05539298      -1.28380142 </v>
   <v>      -0.03857974       0.02616909      -1.83723572 </v>
   <v>      -0.00938227      -0.10240061      -1.86385054 </v>
   <v>      -0.02753952      -0.01128002      -0.86023552 </v>
   <v>       0.00443293       0.03495723      -0.83584647 </v>
   <v>      -1.03156524       0.79688152      -0.03978564 </v>
   <v>       1.03422330       1.25130984      -0.79757559 </v>
   <v>      -2.09342309       0.43037988       0.64082999 </v>
   <v>       0.29418004      -1.60192734      -0.55119268 </v>
   <v>      -0.50108499      -0.18088632      -0.81767204 </v>
   <v>       0.53989115       0.36480564      -0.53204606 </v>
   <v>       0.00777603      -0.00180090       0.00302924 </v>
  </varray>
  <varray name="stress" >
   <v>      -3.93559731      -1.08674480      -0.61214814 </v>
   <v>      -1.08674463      -5.48201974       2.95219177 </v>
   <v>      -0.61214799       2.95219188      -2.28767352 </v>
  </varray>
  <energy>
   <i name="e_fr_energy">   -478.44063243 </i>
   <i name="e_wo_entrp">   -478.44063243 </i>
   <i name="e_0_energy">   -478.44063243 </i>
  </energy>
  <time name="totalsc"> 1013.47  231.28</time>
  <eigenvalues>
   <array>
    <dimension dim="1">band</dimension>
    <dimension dim="2">kpoint</dimension>
    <dimension dim="3">spin</dimension>
    <field>eigene</field>
    <field>occ</field>
    <set>
     <set comment="spin 1">
      <set comment="kpoint 1">
       <r>  -30.4874    1.0000 </r>
       <r>  -27.5420    1.0000 </r>
       <r>  -27.1480    1.0000 </r>
       <r>  -26.9989    1.0000 </r>
       <r>  -22.7049    1.0000 </r>
       <r>  -22.2850    1.0000 </r>
       <r>  -22.2435    1.0000 </r>
       <r>  -22.1720    1.0000 </r>
       <r>  -21.8793    1.0000 </r>
       <r>  -21.7945    1.0000 </r>
       <r>  -21.6072    1.0000 </r>
       <r>  -21.4908    1.0000 </r>
       <r>  -21.4415    1.0000 </r>
       <r>  -21.2726    1.0000 </r>
       <r>  -21.1733    1.0000 </r>
       <r>  -21.0529    1.0000 </r>
       <r>  -21.0439    1.0000 </r>
       <r>  -20.8439    1.0000 </r>
       <r>  -20.8200    1.0000 </r>
       <r>  -20.7137    1.0000 </r>
       <r>  -20.5953    1.0000 </r>
       <r>  -20.5595    1.0000 </r>
       <r>  -20.4696    1.0000 </r>
       <r>  -20.4660    1.0000 </r>
       <r>  -20.3264    1.0000 </r>
       <r>  -20.3028    1.0000 </r>
       <r>  -20.2534    1.0000 </r>
       <r>  -20.1869    1.0000 </r>
       <r>  -20.1588    1.0000 </r>
       <r>  -20.0390    1.0000 </r>
       <r>  -20.0226    1.0000 </r>
       <r>  -19.6501    1.0000 </r>
       <r>  -19.3099    1.0000 </r>
       <r>  -19.2654    1.0000 </r>
       <r>  -19.2493    1.0000 </r>
       <r>  -19.2350    1.0000 </r>
       <r>  -18.9132    1.0000 </r>
       <r>  -18.8875    1.0000 </r>
       <r>  -18.8466    1.0000 </r>
       <r>  -18.8367    1.0000 </r>
       <r>  -18.8059    1.0000 </r>
       <r>  -18.7477    1.0000 </r>
       <r>  -18.6818    1.0000 </r>
       <r>  -18.6799    1.0000 </r>
       <r>  -18.6387    1.0000 </r>
       <r>  -18.6336    1.0000 </r>
       <r>  -18.5445    1.0000 </r>
       <r>  -18.5433    1.0000 </r>
       <r>  -17.4253    1.0000 </r>
       <r>  -17.3517    1.0000 </r>
       <r>  -13.9875    1.0000 </r>
       <r>  -13.9677    1.0000 </r>
       <r>  -13.9643    1.0000 </r>
       <r>  -11.3835    1.0000 </r>
       <r>  -11.3156    1.0000 </r>
       <r>  -10.6622    1.0000 </r>
       <r>  -10.0827    1.0000 </r>
       <r>  -10.0137    1.0000 </r>
       <r>   -9.9670    1.0000 </r>
       <r>   -9.8711    1.0000 </r>
       <r>   -9.8043    1.0000 </r>
       <r>   -9.6368    1.0000 </r>
       <r>   -9.5433    1.0000 </r>
       <r>   -9.4546    1.0000 </r>
       <r>   -9.3232    1.0000 </r>
       <r>   -9.2757    1.0000 </r>
       <r>   -9.1654    1.0000 </r>
       <r>   -9.0690    1.0000 </r>
       <r>   -9.0196    1.0000 </r>
       <r>   -8.9590    1.0000 </r>
       <r>   -8.8967    1.0000 </r>
       <r>   -8.8539    1.0000 </r>
       <r>   -8.8141    1.0000 </r>
       <r>   -8.7625    1.0000 </r>
       <r>   -8.7534    1.0000 </r>
       <r>   -8.7391    1.0000 </r>
       <r>   -8.5227    1.0000 </r>
       <r>   -8.3489    1.0000 </r>
       <r>   -8.3262    1.0000 </r>
       <r>   -8.2655    1.0000 </r>
       <r>   -8.1834    1.0000 </r>
       <r>   -7.9777    1.0000 </r>
       <r>   -7.9487    1.0000 </r>
       <r>   -7.8910    1.0000 </r>
       <r>   -7.8579    1.0000 </r>
       <r>   -7.7977    1.0000 </r>
       <r>   -7.6041    1.0000 </r>
       <r>   -7.5627    1.0000 </r>
       <r>   -7.4839    1.0000 </r>
       <r>   -7.4044    1.0000 </r>
       <r>   -7.2420    1.0000 </r>
       <r>   -7.2281    1.0000 </r>
       <r>   -7.0105    1.0000 </r>
       <r>   -6.9786    1.0000 </r>
       <r>   -6.9580    1.0000 </r>
       <r>   -6.8771    1.0000 </r>
       <r>   -6.7836    1.0000 </r>
       <r>   -6.7684    1.0000 </r>
       <r>   -6.7053    1.0000 </r>
       <r>   -6.6557    1.0000 </r>
       <r>   -6.5684    1.0000 </r>
       <r>   -6.5411    1.0000 </r>
       <r>   -6.5094    1.0000 </r>
       <r>   -6.4689    1.0000 </r>
       <r>   -6.4388    1.0000 </r>
       <r>   -6.4206    1.0000 </r>
       <r>   -6.3057    1.0000 </r>
       <r>   -6.2673    1.0000 </r>
       <r>   -6.2251    1.0000 </r>
       <r>   -6.1839    1.0000 </r>
       <r>   -6.1487    1.0000 </r>
       <r>   -6.1263    1.0000 </r>
       <r>   -6.1053    1.0000 </r>
       <r>   -6.0643    1.0000 </r>
       <r>   -6.0279    1.0000 </r>
       <r>   -5.9569    1.0000 </r>
       <r>   -5.8955    1.0000 </r>
       <r>   -5.8590    1.0000 </r>
       <r>   -5.8209    1.0000 </r>
       <r>   -5.7307    1.0000 </r>
       <r>   -5.6998    1.0000 </r>
       <r>   -5.6763    1.0000 </r>
       <r>   -5.6420    1.0000 </r>
       <r>   -5.5705    1.0000 </r>
       <r>   -5.4706    1.0000 </r>
       <r>   -5.3830    1.0000 </r>
       <r>   -5.3111    1.0000 </r>
       <r>   -5.2706    1.0000 </r>
       <r>   -5.2003    1.0000 </r>
       <r>   -5.1758    1.0000 </r>
       <r>   -5.1250    1.0000 </r>
       <r>   -5.1187    1.0000 </r>
       <r>   -5.0544    1.0000 </r>
       <r>   -5.0111    1.0000 </r>
       <r>   -4.9814    1.0000 </r>
       <r>   -4.9245    1.0000 </r>
       <r>   -4.8732    1.0000 </r>
       <r>   -4.8222    1.0000 </r>
       <r>   -4.7793    1.0000 </r>
       <r>   -4.7462    1.0000 </r>
       <r>   -4.7181    1.0000 </r>
       <r>   -4.7046    1.0000 </r>
       <r>   -4.6896    1.0000 </r>
       <r>   -4.6571    1.0000 </r>
       <r>   -4.6101    1.0000 </r>
       <r>   -4.5810    1.0000 </r>
       <r>   -4.4916    1.0000 </r>
       <r>   -4.4843    1.0000 </r>
       <r>   -4.4336    1.0000 </r>
       <r>   -4.3745    1.0000 </r>
       <r>   -4.3530    1.0000 </r>
       <r>   -4.2896    1.0000 </r>
       <r>   -4.2683    1.0000 </r>
       <r>   -4.2276    1.0000 </r>
       <r>   -4.2184    1.0000 </r>
       <r>   -4.1770    1.0000 </r>
       <r>   -4.1346    1.0000 </r>
       <r>   -4.0638    1.0000 </r>
       <r>   -3.9177    1.0000 </r>
       <r>   -3.9164    1.0000 </r>
       <r>   -3.8881    1.0000 </r>
       <r>   -3.7288    1.0000 </r>
       <r>   -3.6948    1.0000 </r>
       <r>   -3.6775    1.0000 </r>
       <r>   -3.6569    1.0000 </r>
       <r>   -3.6293    1.0000 </r>
       <r>   -3.5769    1.0000 </r>
       <r>   -3.5311    1.0000 </r>
       <r>   -3.5216    1.0000 </r>
       <r>   -3.4721    1.0000 </r>
       <r>   -3.4416    1.0000 </r>
       <r>   -3.3732    1.0000 </r>
       <r>   -3.3569    1.0000 </r>
       <r>   -3.3218    1.0000 </r>
       <r>   -3.2972    1.0000 </r>
       <r>   -3.2875    1.0000 </r>
       <r>   -3.2766    1.0000 </r>
       <r>   -3.2276    1.0000 </r>
       <r>   -3.1911    1.0000 </r>
       <r>   -3.1607    1.0000 </r>
       <r>   -3.1328    1.0000 </r>
       <r>   -3.1248    1.0000 </r>
       <r>   -3.0998    1.0000 </r>
       <r>   -3.0488    1.0000 </r>
       <r>   -3.0050    1.0000 </r>
       <r>   -2.9587    1.0000 </r>
       <r>   -2.9347    1.0000 </r>
       <r>   -2.9302    0.7870 </r>
       <r>   -2.9172    0.0000 </r>
       <r>   -2.8869    0.0000 </r>
       <r>   -2.7315    0.0000 </r>
       <r>   -2.7217    0.0000 </r>
       <r>   -2.7189    0.0000 </r>
       <r>   -2.4799    0.0000 </r>
       <r>   -2.4759    0.0000 </r>
       <r>   -0.5323    0.0000 </r>
       <r>    0.5330    0.0000 </r>
       <r>    0.8713    0.0000 </r>
       <r>    1.2574    0.0000 </r>
       <r>    1.4865    0.0000 </r>
       <r>    2.2410    0.0000 </r>
       <r>    2.5180    0.0000 </r>
       <r>    2.8065    0.0000 </r>
       <r>    2.9831    0.0000 </r>
       <r>    3.2780    0.0000 </r>
       <r>    3.7248    0.0000 </r>
       <r>    4.7880    0.0000 </r>
       <r>    4.7991    0.0000 </r>
       <r>    4.9508    0.0000 </r>
       <r>    5.0596    0.0000 </r>
       <r>    5.1563    0.0000 </r>
       <r>    5.2025    0.0000 </r>
       <r>    5.2649    0.0000 </r>
       <r>    5.5294    0.0000 </r>
       <r>    5.5682    0.0000 </r>
       <r>    5.6486    0.0000 </r>
       <r>    5.7413    0.0000 </r>
       <r>    5.8110    0.0000 </r>
       <r>    5.9254    0.0000 </r>
       <r>    5.9890    0.0000 </r>
       <r>    6.0298    0.0000 </r>
       <r>    6.0400    0.0000 </r>
       <r>    6.1160    0.0000 </r>
       <r>    6.1668    0.0000 </r>
       <r>    6.3361    0.0000 </r>
       <r>    6.5079    0.0000 </r>
       <r>    6.5627    0.0000 </r>
       <r>    6.9622    0.0000 </r>
      </set>
      <set comment="kpoint 2">
       <r>  -30.4874    1.0000 </r>
       <r>  -27.5420    1.0000 </r>
       <r>  -27.1480    1.0000 </r>
       <r>  -26.9990    1.0000 </r>
       <r>  -22.6318    1.0000 </r>
[...]
       <r>   -23.8325     0.0000     8.0000 </r>
       <r>   -23.6949     0.0000     8.0000 </r>
       <r>   -23.5573     0.0000     8.0000 </r>
       <r>   -23.4197     0.0000     8.0000 </r>
       <r>   -23.2821     0.0000     8.0000 </r>
       <r>   -23.1445     0.0000     8.0000 </r>
       <r>   -23.0069     0.0000     8.0000 </r>
       <r>   -22.8693     0.0000     8.0000 </r>
       <r>   -22.7317     0.0000     8.0000 </r>
       <r>   -22.5941    16.7900     9.1242 </r>
       <r>   -22.4565     3.6337    10.0000 </r>
       <r>   -22.3189    16.6211    11.9029 </r>
       <r>   -22.1813    44.8885    15.6080 </r>
       <r>   -22.0437     6.2839    16.0670 </r>
       <r>   -21.9061    11.3420    17.4927 </r>
       <r>   -21.7685    23.8509    19.4747 </r>
       <r>   -21.6309     0.0000    20.0000 </r>
       <r>   -21.4933    28.6259    21.8658 </r>
       <r>   -21.3557    28.5650    25.4543 </r>
       <r>   -21.2181    26.7989    28.2528 </r>
       <r>   -21.0805    38.2747    31.5480 </r>
       <r>   -20.9429    14.5348    34.0000 </r>
       <r>   -20.8053    50.3758    37.4633 </r>
       <r>   -20.6677    48.7015    40.2226 </r>
       <r>   -20.5301    42.5447    44.0579 </r>
       <r>   -20.3925    38.9446    47.5011 </r>
       <r>   -20.2549    47.4082    51.2955 </r>
       <r>   -20.1173    84.2624    58.4260 </r>
       <r>   -19.9797    18.1685    62.0000 </r>
       <r>   -19.8421     0.0000    62.0000 </r>
       <r>   -19.7045     0.0000    62.0000 </r>
       <r>   -19.5669    18.0418    63.0025 </r>
       <r>   -19.4293    39.6369    64.8682 </r>
       <r>   -19.2917    57.8609    67.8484 </r>
       <r>   -19.1541    23.0134    72.0000 </r>
       <r>   -19.0165     0.0000    72.0000 </r>
       <r>   -18.8789   100.0268    75.0850 </r>
       <r>   -18.7413   100.2044    82.2746 </r>
       <r>   -18.6037   123.2638    92.8395 </r>
       <r>   -18.4661     9.6899    96.0000 </r>
       <r>   -18.3285     0.0000    96.0000 </r>
       <r>   -18.1909     0.0000    96.0000 </r>
       <r>   -18.0533     0.0000    96.0000 </r>
       <r>   -17.9157     0.0000    96.0000 </r>
       <r>   -17.7781     0.0000    96.0000 </r>
       <r>   -17.6405     0.0000    96.0000 </r>
       <r>   -17.5029     0.0000    96.0000 </r>
       <r>   -17.3653    14.5348    98.0000 </r>
       <r>   -17.2277    14.5348   100.0000 </r>
       <r>   -17.0901     0.0000   100.0000 </r>
       <r>   -16.9525     0.0000   100.0000 </r>
       <r>   -16.8149     0.0000   100.0000 </r>
       <r>   -16.6773     0.0000   100.0000 </r>
       <r>   -16.5397     0.0000   100.0000 </r>
       <r>   -16.4021     0.0000   100.0000 </r>
       <r>   -16.2645     0.0000   100.0000 </r>
       <r>   -16.1269     0.0000   100.0000 </r>
       <r>   -15.9893     0.0000   100.0000 </r>
       <r>   -15.8517     0.0000   100.0000 </r>
       <r>   -15.7141     0.0000   100.0000 </r>
       <r>   -15.5765     0.0000   100.0000 </r>
       <r>   -15.4389     0.0000   100.0000 </r>
       <r>   -15.3013     0.0000   100.0000 </r>
       <r>   -15.1637     0.0000   100.0000 </r>
       <r>   -15.0261     0.0000   100.0000 </r>
       <r>   -14.8885     0.0000   100.0000 </r>
       <r>   -14.7509     0.0000   100.0000 </r>
       <r>   -14.6133     0.0000   100.0000 </r>
       <r>   -14.4757     0.0000   100.0000 </r>
       <r>   -14.3381     0.0000   100.0000 </r>
       <r>   -14.2005     0.0000   100.0000 </r>
       <r>   -14.0629     0.0000   100.0000 </r>
       <r>   -13.9253    43.6044   106.0000 </r>
       <r>   -13.7877     0.0000   106.0000 </r>
       <r>   -13.6501     0.0000   106.0000 </r>
       <r>   -13.5125     0.0000   106.0000 </r>
       <r>   -13.3749     0.0000   106.0000 </r>
       <r>   -13.2373     0.0000   106.0000 </r>
       <r>   -13.0997     0.0000   106.0000 </r>
       <r>   -12.9621     0.0000   106.0000 </r>
       <r>   -12.8245     0.0000   106.0000 </r>
       <r>   -12.6869     0.0000   106.0000 </r>
       <r>   -12.5493     0.0000   106.0000 </r>
       <r>   -12.4117     0.0000   106.0000 </r>
       <r>   -12.2741     0.0000   106.0000 </r>
       <r>   -12.1365     0.0000   106.0000 </r>
       <r>   -11.9989     0.0000   106.0000 </r>
       <r>   -11.8613     0.0000   106.0000 </r>
       <r>   -11.7237     0.0000   106.0000 </r>
       <r>   -11.5861     0.0000   106.0000 </r>
       <r>   -11.4485     0.0000   106.0000 </r>
       <r>   -11.3109    29.0696   110.0000 </r>
       <r>   -11.1732     0.0000   110.0000 </r>
       <r>   -11.0356     0.0000   110.0000 </r>
       <r>   -10.8980     0.0000   110.0000 </r>
       <r>   -10.7604     0.0000   110.0000 </r>
       <r>   -10.6228    14.5348   112.0000 </r>
       <r>   -10.4852     0.0000   112.0000 </r>
       <r>   -10.3476     0.0000   112.0000 </r>
       <r>   -10.2100     0.0000   112.0000 </r>
       <r>   -10.0724    35.7268   113.4570 </r>
       <r>    -9.9348    61.1360   117.6260 </r>
       <r>    -9.7972    37.5329   121.5272 </r>
       <r>    -9.6596    13.3010   123.9726 </r>
       <r>    -9.5220    28.6987   126.4922 </r>
       <r>    -9.3844    12.7621   128.5522 </r>
       <r>    -9.2468    37.3210   132.0081 </r>
       <r>    -9.1092    39.3380   136.0129 </r>
       <r>    -8.9716    63.3785   140.6044 </r>
       <r>    -8.8340    56.0618   145.8483 </r>
       <r>    -8.6964    30.9960   149.4898 </r>
       <r>    -8.5588    11.4475   151.7774 </r>
       <r>    -8.4212    26.8986   153.6845 </r>
       <r>    -8.2836    26.4856   156.5340 </r>
       <r>    -8.1460    19.5686   159.3157 </r>
       <r>    -8.0084    37.1737   162.5487 </r>
       <r>    -7.8708    45.4442   166.6852 </r>
       <r>    -7.7332    26.7958   170.7559 </r>
       <r>    -7.5956     8.4594   172.1748 </r>
       <r>    -7.4580    19.5470   174.0727 </r>
       <r>    -7.3204    22.5437   177.4614 </r>
       <r>    -7.1828    38.3257   181.0615 </r>
       <r>    -7.0452    47.5635   185.5190 </r>
       <r>    -6.9076    52.0629   190.0854 </r>
       <r>    -6.7700    57.6036   194.7177 </r>
       <r>    -6.6324    66.1408   200.0125 </r>
       <r>    -6.4948    83.0196   207.2521 </r>
       <r>    -6.3572    53.5252   212.2961 </r>
       <r>    -6.2196    78.5521   218.3512 </r>
       <r>    -6.0820    81.7230   224.7145 </r>
       <r>    -5.9444    87.9650   230.4741 </r>
       <r>    -5.8068    64.0026   236.1431 </r>
       <r>    -5.6692    33.1453   240.0654 </r>
       <r>    -5.5316    35.9828   246.1781 </r>
       <r>    -5.3940   106.1475   251.1743 </r>
       <r>    -5.2564    75.4536   257.6937 </r>
       <r>    -5.1188    68.3094   263.6930 </r>
       <r>    -4.9812    96.3226   270.3453 </r>
       <r>    -4.8436    83.7499   276.7680 </r>
       <r>    -4.7060    76.8609   285.7671 </r>
       <r>    -4.5684    55.1324   292.0961 </r>
       <r>    -4.4308    71.5013   297.8473 </r>
       <r>    -4.2932   143.6372   303.5497 </r>
       <r>    -4.1556    74.7680   310.4548 </r>
       <r>    -4.0180    56.2639   316.1097 </r>
       <r>    -3.8804    40.3613   318.5894 </r>
       <r>    -3.7428    74.0309   322.2604 </r>
       <r>    -3.6052    90.1316   330.2954 </r>
       <r>    -3.4676   121.7973   338.4693 </r>
       <r>    -3.3300   127.8191   348.1445 </r>
       <r>    -3.1924    68.2062   357.9911 </r>
       <r>    -3.0548   104.9599   367.9294 </r>
       <r>    -2.9172   305.6624   376.8343 </r>
       <r>    -2.7796    34.9860   381.1211 </r>
       <r>    -2.6420    75.5395   386.5348 </r>
       <r>    -2.5044    26.6341   389.7950 </r>
       <r>    -2.3668     0.0000   390.0000 </r>
       <r>    -2.2292     0.0000   390.0000 </r>
       <r>    -2.0916     0.0000   390.0000 </r>
       <r>    -1.9540     0.0000   390.0000 </r>
       <r>    -1.8164     0.0000   390.0000 </r>
       <r>    -1.6788     0.0000   390.0000 </r>
       <r>    -1.5412     0.0000   390.0000 </r>
       <r>    -1.4036     0.0000   390.0000 </r>
       <r>    -1.2660     0.0000   390.0000 </r>
       <r>    -1.1284     0.0000   390.0000 </r>
       <r>    -0.9908     0.0000   390.0000 </r>
       <r>    -0.8532     0.0000   390.0000 </r>
       <r>    -0.7156     0.0000   390.0000 </r>
       <r>    -0.5780     0.0000   390.0000 </r>
       <r>    -0.4404    14.5348   392.0000 </r>
       <r>    -0.3028     0.0000   392.0000 </r>
       <r>    -0.1652     0.0000   392.0000 </r>
       <r>    -0.0276     0.0000   392.0000 </r>
       <r>     0.1100     0.0000   392.0000 </r>
       <r>     0.2476     0.0000   392.0000 </r>
       <r>     0.3852     0.0000   392.0000 </r>
       <r>     0.5228    12.8844   392.0655 </r>
       <r>     0.6604     8.4786   394.0000 </r>
       <r>     0.7980     0.0000   394.0000 </r>
       <r>     0.9356    14.5348   396.0000 </r>
       <r>     1.0732     0.0000   396.0000 </r>
       <r>     1.2108     0.0000   396.0000 </r>
       <r>     1.3484     3.2429   396.1476 </r>
       <r>     1.4860     8.5878   397.0685 </r>
       <r>     1.6236    19.2432   399.6656 </r>
       <r>     1.7612     0.0000   400.0000 </r>
       <r>     1.8988     0.0000   400.0000 </r>
       <r>     2.0364     2.0547   400.0457 </r>
       <r>     2.1740     9.5567   400.8762 </r>
       <r>     2.3116     3.6337   402.0000 </r>
       <r>     2.4492    20.3762   402.5271 </r>
       <r>     2.5868     1.2112   404.0000 </r>
       <r>     2.7244     0.0000   404.0000 </r>
       <r>     2.8620    14.5348   406.0000 </r>
       <r>     2.9996    32.5594   407.8508 </r>
       <r>     3.1372     0.0000   408.0000 </r>
       <r>     3.2748     0.0000   408.0000 </r>
       <r>     3.4124    11.7265   408.9778 </r>
       <r>     3.5500     3.6337   410.0000 </r>
       <r>     3.6876     0.0000   410.0000 </r>
       <r>     3.8252     2.2087   410.1109 </r>
       <r>     3.9628     6.5285   410.6082 </r>
       <r>     4.1004     7.0524   411.4998 </r>
       <r>     4.2380     0.9515   412.0150 </r>
       <r>     4.3756    19.1884   413.1338 </r>
       <r>     4.5132     1.8772   413.7421 </r>
       <r>     4.6508    12.7174   415.2901 </r>
       <r>     4.7884    11.0993   416.7492 </r>
       <r>     4.9260    12.8671   417.9675 </r>
       <r>     5.0636    12.1782   419.4500 </r>
       <r>     5.2013    19.8032   421.3269 </r>
       <r>     5.3389    29.4128   423.9156 </r>
       <r>     5.4765    17.7067   426.2477 </r>
       <r>     5.6141    21.8903   428.9785 </r>
       <r>     5.7517    28.0805   431.6988 </r>
       <r>     5.8893    32.6439   435.7797 </r>
       <r>     6.0269    33.5744   439.1892 </r>
       <r>     6.1645    26.0045   442.5525 </r>
       <r>     6.3021    19.6833   445.4517 </r>
       <r>     6.4397    17.0973   448.0875 </r>
       <r>     6.5773    33.0140   451.2862 </r>
       <r>     6.7149     9.0536   453.5162 </r>
       <r>     6.8525    12.3149   455.3440 </r>
       <r>     6.9901     1.0680   455.9733 </r>
       <r>     7.1277     0.0000   456.0000 </r>
       <r>     7.2653     0.0000   456.0000 </r>
       <r>     7.4029     0.0000   456.0000 </r>
       <r>     7.5405     0.0000   456.0000 </r>
       <r>     7.6781     0.0000   456.0000 </r>
       <r>     7.8157     0.0000   456.0000 </r>
       <r>     7.9533     0.0000   456.0000 </r>
       <r>     8.0909     0.0000   456.0000 </r>
       <r>     8.2285     0.0000   456.0000 </r>
       <r>     8.3661     0.0000   456.0000 </r>
       <r>     8.5037     0.0000   456.0000 </r>
       <r>     8.6413     0.0000   456.0000 </r>
       <r>     8.7789     0.0000   456.0000 </r>
       <r>     8.9165     0.0000   456.0000 </r>
      </set>
     </set>
    </array>
   </total>
  </dos>
 </calculation>
 <structure name="finalpos" >
  <crystal>
   <varray name="basis" >
    <v>       9.61490200       0.00000000       0.00000000 </v>
    <v>       0.00000000       8.32674900       0.00000000 </v>
    <v>       0.00000000       0.00000000      21.56058900 </v>
   </varray>
   <i name="volume">   1726.15963408 </i>
   <varray name="rec_basis" >
    <v>       0.10400522       0.00000000       0.00000000 </v>
    <v>       0.00000000       0.12009489       0.00000000 </v>
    <v>       0.00000000       0.00000000       0.04638092 </v>
   </varray>
  </crystal>
  <varray name="positions" >
   <v>       0.17345600       0.98642100       0.00000000 </v>
   <v>       0.42345600       0.48642100       0.00000000 </v>
   <v>       0.09691200       0.50000000       0.10142900 </v>
   <v>       0.34691300       0.00000000       0.10142900 </v>
   <v>       0.15308800       0.33333300       0.00000000 </v>
   <v>       0.40308800       0.83333300       0.00000000 </v>
   <v>       0.17345600       0.68024600       0.00000000 </v>
   <v>       0.42345600       0.18024500       0.00000000 </v>
   <v>       0.07654400       0.15308700       0.10142900 </v>
   <v>       0.32654400       0.65308700       0.10142900 </v>
   <v>       0.07654400       0.84691300       0.10142900 </v>
   <v>       0.32654400       0.34691300       0.10142900 </v>
   <v>       0.17345600       0.31975500       0.20285800 </v>
   <v>       0.42345600       0.81975500       0.20285800 </v>
   <v>       0.11184412       0.83511109       0.30509833 </v>
   <v>       0.37145885       0.28962479       0.30302635 </v>
   <v>       0.15308700       0.66666700       0.20285800 </v>
   <v>       0.40308800       0.16666700       0.20285800 </v>
   <v>       0.17345600       0.01358000       0.20285800 </v>
   <v>       0.42345600       0.51358000       0.20285800 </v>
   <v>       0.06491186       0.48308338       0.30060106 </v>
   <v>       0.04536708       0.98150452       0.32438204 </v>
   <v>       0.15055824       0.09627731       0.33048357 </v>
   <v>       0.34261732       0.72184959       0.30243522 </v>
   <v>       0.67345600       0.98642100       0.00000000 </v>
   <v>       0.92345600       0.48642100       0.00000000 </v>
   <v>       0.59691300       0.50000000       0.10142900 </v>
   <v>       0.84691300       0.00000000       0.10142900 </v>
   <v>       0.65308800       0.33333300       0.00000000 </v>
   <v>       0.90308800       0.83333300       0.00000000 </v>
   <v>       0.67345600       0.68024500       0.00000000 </v>
   <v>       0.92345600       0.18024500       0.00000000 </v>
   <v>       0.57654400       0.15308700       0.10142900 </v>
   <v>       0.82654400       0.65308700       0.10142900 </v>
   <v>       0.57654400       0.84691300       0.10142900 </v>
   <v>       0.82654400       0.34691300       0.10142900 </v>
   <v>       0.67345600       0.31975500       0.20285800 </v>
   <v>       0.92345600       0.81975500       0.20285800 </v>
   <v>       0.60850529       0.83815181       0.30437371 </v>
   <v>       0.88697654       0.26108976       0.30465235 </v>
   <v>       0.65308800       0.66666700       0.20285800 </v>
   <v>       0.90308800       0.16666700       0.20285800 </v>
   <v>       0.67345600       0.01358000       0.20285800 </v>
   <v>       0.92345600       0.51357900       0.20285800 </v>
   <v>       0.59486420       0.48997727       0.29935867 </v>
   <v>       0.53248326       0.98353629       0.31881951 </v>
   <v>       0.62730909       0.11029246       0.32491761 </v>
   <v>       0.84843721       0.74716884       0.30290208 </v>
   <v>       0.55902481       0.47611910       0.36510893 </v>
   <v>       0.00000000       0.66666700       0.14070600 </v>
   <v>       0.25000000       0.16666700       0.14070600 </v>
   <v>       0.00000000       0.33333300       0.06215200 </v>
   <v>       0.25000000       0.83333300       0.06215200 </v>
   <v>       0.00000000       0.00000000       0.03927700 </v>
   <v>       0.25000000       0.50000000       0.03927700 </v>
   <v>       0.00000000       0.66666700       0.26500900 </v>
   <v>       0.25000000       0.16666700       0.26500900 </v>
   <v>       0.00000000       0.33333300       0.24213400 </v>
   <v>       0.25000000       0.83333300       0.24213400 </v>
   <v>       0.00000000       0.00000000       0.16358100 </v>
   <v>       0.25000000       0.50000000       0.16358100 </v>
   <v>       0.50000000       0.66666700       0.14070600 </v>
   <v>       0.75000000       0.16666700       0.14070600 </v>
   <v>       0.50000000       0.33333300       0.06215200 </v>
   <v>       0.75000000       0.83333300       0.06215200 </v>
   <v>       0.50000000       0.00000000       0.03927700 </v>
   <v>       0.75000000       0.50000000       0.03927700 </v>
   <v>       0.50000000       0.66666700       0.26500900 </v>
   <v>       0.75000000       0.16666700       0.26500900 </v>
   <v>       0.50000000       0.33333300       0.24213400 </v>
   <v>       0.75000000       0.83333300       0.24213400 </v>
   <v>       0.50000000       0.00000000       0.16358100 </v>
   <v>       0.75000000       0.50000000       0.16358100 </v>
   <v>       0.26202556       0.49429515       0.38569783 </v>
  </varray>
  <varray name="selective"  type="logical" >
   <v type="logical" >  F  F  F </v>
   <v type="logical" >  F  F  F </v>
   <v type="logical" >  F  F  F </v>
   <v type="logical" >  F  F  F </v>
   <v type="logical" >  F  F  F </v>
   <v type="logical" >  F  F  F </v>
   <v type="logical" >  F  F  F </v>
   <v type="logical" >  F  F  F </v>
   <v type="logical" >  F  F  F </v>
   <v type="logical" >  F  F  F </v>
   <v type="logical" >  F  F  F </v>
   <v type="logical" >  F  F  F </v>
   <v type="logical" >  F  F  F </v>
   <v type="logical" >  F  F  F </v>
   <v type="logical" >  T  T  T </v>
   <v type="logical" >  T  T  T </v>
   <v type="logical" >  F  F  F </v>
   <v type="logical" >  F  F  F </v>
   <v type="logical" >  F  F  F </v>
   <v type="logical" >  F  F  F </v>
   <v type="logical" >  T  T  T </v>
   <v type="logical" >  T  T  T </v>
   <v type="logical" >  T  T  T </v>
   <v type="logical" >  T  T  T </v>
   <v type="logical" >  F  F  F </v>
   <v type="logical" >  F  F  F </v>
   <v type="logical" >  F  F  F </v>
   <v type="logical" >  F  F  F </v>
   <v type="logical" >  F  F  F </v>
   <v type="logical" >  F  F  F </v>
   <v type="logical" >  F  F  F </v>
   <v type="logical" >  F  F  F </v>
   <v type="logical" >  F  F  F </v>
   <v type="logical" >  F  F  F </v>
   <v type="logical" >  F  F  F </v>
   <v type="logical" >  F  F  F </v>
   <v type="logical" >  F  F  F </v>
   <v type="logical" >  F  F  F </v>
   <v type="logical" >  T  T  T </v>
   <v type="logical" >  T  T  T </v>
   <v type="logical" >  F  F  F </v>
   <v type="logical" >  F  F  F </v>
   <v type="logical" >  F  F  F </v>
   <v type="logical" >  F  F  F </v>
   <v type="logical" >  T  T  T </v>
   <v type="logical" >  T  T  T </v>
   <v type="logical" >  T  T  T </v>
   <v type="logical" >  T  T  T </v>
   <v type="logical" >  T  T  T </v>
   <v type="logical" >  F  F  F </v>
   <v type="logical" >  F  F  F </v>
   <v type="logical" >  F  F  F </v>
   <v type="logical" >  F  F  F </v>
   <v type="logical" >  F  F  F </v>
   <v type="logical" >  F  F  F </v>
   <v type="logical" >  F  F  F </v>
   <v type="logical" >  F  F  F </v>
   <v type="logical" >  F  F  F </v>
   <v type="logical" >  F  F  F </v>
   <v type="logical" >  F  F  F </v>
   <v type="logical" >  F  F  F </v>
   <v type="logical" >  F  F  F </v>
   <v type="logical" >  F  F  F </v>
   <v type="logical" >  F  F  F </v>
   <v type="logical" >  F  F  F </v>
   <v type="logical" >  F  F  F </v>
   <v type="logical" >  F  F  F </v>
   <v type="logical" >  F  F  F </v>
   <v type="logical" >  F  F  F </v>
   <v type="logical" >  F  F  F </v>
   <v type="logical" >  F  F  F </v>
   <v type="logical" >  F  F  F </v>
   <v type="logical" >  F  F  F </v>
   <v type="logical" >  T  T  T </v>
  </varray>
  <nose>
   <v>      -3.00000000       0.00000000       0.00010000       0.00010000 </v>
  </nose>
 </structure>
</modeling>
