ni3al                                   
           1
     9.614902    0.000000    0.000000
     0.000000    8.326749    0.000000
     0.000000    0.000000   21.560589
   O    F    Al   K 
    48     1    24     1
Direct configuration=     1
   0.17345600  0.98642100  0.00000000
   0.42345600  0.48642100  0.00000000
   0.09691200  0.50000000  0.10142900
   0.34691300  0.00000000  0.10142900
   0.15308800  0.33333300  0.00000000
   0.40308800  0.83333300  0.00000000
   0.17345600  0.68024600  0.00000000
   0.42345600  0.18024500  0.00000000
   0.07654400  0.15308700  0.10142900
   0.32654400  0.65308700  0.10142900
   0.07654400  0.84691300  0.10142900
   0.32654400  0.34691300  0.10142900
   0.17345600  0.31975500  0.20285800
   0.42345600  0.81975500  0.20285800
   0.11184412  0.83511109  0.30509833
   0.37145885  0.28962479  0.30302635
   0.15308700  0.66666700  0.20285800
   0.40308800  0.16666700  0.20285800
   0.17345600  0.01358000  0.20285800
   0.42345600  0.51358000  0.20285800
   0.06491186  0.48308338  0.30060106
   0.04536708  0.98150452  0.32438204
   0.15055824  0.09627731  0.33048357
   0.34261732  0.72184959  0.30243522
   0.67345600  0.98642100  0.00000000
   0.92345600  0.48642100  0.00000000
   0.59691300  0.50000000  0.10142900
   0.84691300  0.00000000  0.10142900
   0.65308800  0.33333300  0.00000000
   0.90308800  0.83333300  0.00000000
   0.67345600  0.68024500  0.00000000
   0.92345600  0.18024500  0.00000000
   0.57654400  0.15308700  0.10142900
   0.82654400  0.65308700  0.10142900
   0.57654400  0.84691300  0.10142900
   0.82654400  0.34691300  0.10142900
   0.67345600  0.31975500  0.20285800
   0.92345600  0.81975500  0.20285800
   0.60850529  0.83815181  0.30437371
   0.88697654  0.26108976  0.30465235
   0.65308800  0.66666700  0.20285800
   0.90308800  0.16666700  0.20285800
   0.67345600  0.01358000  0.20285800
   0.92345600  0.51357900  0.20285800
   0.59486420  0.48997727  0.29935867
   0.53248326  0.98353629  0.31881951
   0.62730909  0.11029246  0.32491761
   0.84843721  0.74716884  0.30290208
   0.55902481  0.47611910  0.36510893
   0.00000000  0.66666700  0.14070600
   0.25000000  0.16666700  0.14070600
   0.00000000  0.33333300  0.06215200
   0.25000000  0.83333300  0.06215200
   0.00000000  0.00000000  0.03927700
   0.25000000  0.50000000  0.03927700
   0.00000000  0.66666700  0.26500900
   0.25000000  0.16666700  0.26500900
   0.00000000  0.33333300  0.24213400
   0.25000000  0.83333300  0.24213400
   0.00000000  0.00000000  0.16358100
   0.25000000  0.50000000  0.16358100
   0.50000000  0.66666700  0.14070600
   0.75000000  0.16666700  0.14070600
   0.50000000  0.33333300  0.06215200
   0.75000000  0.83333300  0.06215200
   0.50000000  0.00000000  0.03927700
   0.75000000  0.50000000  0.03927700
   0.50000000  0.66666700  0.26500900
   0.75000000  0.16666700  0.26500900
   0.50000000  0.33333300  0.24213400
   0.75000000  0.83333300  0.24213400
   0.50000000  0.00000000  0.16358100
   0.75000000  0.50000000  0.16358100
   0.26202556  0.49429515  0.38569783
