  66  66   0   0
  0.2615393E+02  0.9614902E-09  0.8326749E-09  0.2156059E-08  0.5000000E-15
  1.000000000000000E-004
  CAR 
 ni3al                                   
      9.33331709    -32.68744552  301      0.81672984      1.00000000
    -32.687  0.0000E+00  0.0000E+00
    -32.547  0.0000E+00  0.0000E+00
    -32.407  0.0000E+00  0.0000E+00
    -32.267  0.0000E+00  0.0000E+00
    -32.127  0.0000E+00  0.0000E+00
    -31.987  0.0000E+00  0.0000E+00
    -31.847  0.0000E+00  0.0000E+00
    -31.707  0.0000E+00  0.0000E+00
    -31.567  0.0000E+00  0.0000E+00
    -31.427  0.0000E+00  0.0000E+00
    -31.287  0.0000E+00  0.0000E+00
    -31.147  0.0000E+00  0.0000E+00
    -31.007  0.0000E+00  0.0000E+00
    -30.867  0.0000E+00  0.0000E+00
    -30.726  0.1428E+02  0.2000E+01
    -30.586  0.0000E+00  0.2000E+01
    -30.446  0.0000E+00  0.2000E+01
    -30.306  0.0000E+00  0.2000E+01
    -30.166  0.0000E+00  0.2000E+01
    -30.026  0.0000E+00  0.2000E+01
    -29.886  0.0000E+00  0.2000E+01
    -29.746  0.0000E+00  0.2000E+01
    -29.606  0.0000E+00  0.2000E+01
    -29.466  0.0000E+00  0.2000E+01
    -29.326  0.0000E+00  0.2000E+01
    -29.186  0.0000E+00  0.2000E+01
    -29.046  0.0000E+00  0.2000E+01
    -28.906  0.0000E+00  0.2000E+01
    -28.766  0.0000E+00  0.2000E+01
    -28.625  0.0000E+00  0.2000E+01
    -28.485  0.0000E+00  0.2000E+01
    -28.345  0.0000E+00  0.2000E+01
    -28.205  0.0000E+00  0.2000E+01
    -28.065  0.0000E+00  0.2000E+01
    -27.925  0.0000E+00  0.2000E+01
    -27.785  0.0000E+00  0.2000E+01
    -27.645  0.0000E+00  0.2000E+01
    -27.505  0.0000E+00  0.2000E+01
    -27.365  0.0000E+00  0.2000E+01
    -27.225  0.0000E+00  0.2000E+01
    -27.085  0.0000E+00  0.2000E+01
    -26.945  0.0000E+00  0.2000E+01
    -26.805  0.0000E+00  0.2000E+01
    -26.664  0.0000E+00  0.2000E+01
    -26.524  0.0000E+00  0.2000E+01
    -26.384  0.0000E+00  0.2000E+01
    -26.244  0.0000E+00  0.2000E+01
    -26.104  0.0000E+00  0.2000E+01
    -25.964  0.0000E+00  0.2000E+01
    -25.824  0.0000E+00  0.2000E+01
    -25.684  0.0000E+00  0.2000E+01
    -25.544  0.0000E+00  0.2000E+01
    -25.404  0.0000E+00  0.2000E+01
    -25.264  0.0000E+00  0.2000E+01
    -25.124  0.0000E+00  0.2000E+01
    -24.984  0.0000E+00  0.2000E+01
    -24.844  0.0000E+00  0.2000E+01
    -24.704  0.0000E+00  0.2000E+01
    -24.563  0.0000E+00  0.2000E+01
    -24.423  0.0000E+00  0.2000E+01
    -24.283  0.0000E+00  0.2000E+01
    -24.143  0.0000E+00  0.2000E+01
    -24.003  0.0000E+00  0.2000E+01
    -23.863  0.0000E+00  0.2000E+01
    -23.723  0.0000E+00  0.2000E+01
    -23.583  0.0000E+00  0.2000E+01
    -23.443  0.0000E+00  0.2000E+01
    -23.303  0.1428E+02  0.4000E+01
    -23.163  0.0000E+00  0.4000E+01
    -23.023  0.0000E+00  0.4000E+01
    -22.883  0.0000E+00  0.4000E+01
    -22.743  0.0000E+00  0.4000E+01
    -22.602  0.0000E+00  0.4000E+01
    -22.462  0.0000E+00  0.4000E+01
    -22.322  0.0000E+00  0.4000E+01
    -22.182  0.0000E+00  0.4000E+01
    -22.042  0.0000E+00  0.4000E+01
    -21.902  0.0000E+00  0.4000E+01
    -21.762  0.0000E+00  0.4000E+01
    -21.622  0.1566E+02  0.4470E+01
    -21.482  0.6501E+01  0.5704E+01
    -21.342  0.9439E+01  0.6175E+01
    -21.202  0.6724E+01  0.7631E+01
    -21.062  0.1149E+02  0.8576E+01
    -20.922  0.1693E+02  0.1042E+02
    -20.782  0.4336E+01  0.1181E+02
    -20.641  0.2466E+02  0.1361E+02
    -20.501  0.3042E+02  0.1676E+02
    -20.361  0.1309E+02  0.2000E+02
    -20.221  0.0000E+00  0.2000E+02
    -20.081  0.1660E+02  0.2185E+02
    -19.941  0.4521E+02  0.2591E+02
    -19.801  0.7544E+02  0.3053E+02
    -19.661  0.5526E+02  0.3778E+02
    -19.521  0.5266E+02  0.4401E+02
    -19.381  0.5870E+02  0.5046E+02
    -19.241  0.1133E+03  0.5540E+02
    -19.101  0.2494E+02  0.5815E+02
    -18.961  0.2271E+02  0.6200E+02
    -18.821  0.4247E+02  0.6389E+02
    -18.681  0.1428E+02  0.6600E+02
    -18.540  0.5857E+02  0.6846E+02
    -18.400  0.7139E+01  0.7000E+02
    -18.260  0.0000E+00  0.7000E+02
    -18.120  0.1428E+02  0.7200E+02
    -17.980  0.0000E+00  0.7200E+02
    -17.840  0.0000E+00  0.7200E+02
    -17.700  0.1428E+02  0.7400E+02
    -17.560  0.1428E+02  0.7600E+02
    -17.420  0.0000E+00  0.7600E+02
    -17.280  0.0000E+00  0.7600E+02
    -17.140  0.0000E+00  0.7600E+02
    -17.000  0.0000E+00  0.7600E+02
    -16.860  0.0000E+00  0.7600E+02
    -16.720  0.0000E+00  0.7600E+02
    -16.579  0.0000E+00  0.7600E+02
    -16.439  0.0000E+00  0.7600E+02
    -16.299  0.0000E+00  0.7600E+02
    -16.159  0.0000E+00  0.7600E+02
    -16.019  0.0000E+00  0.7600E+02
    -15.879  0.0000E+00  0.7600E+02
    -15.739  0.0000E+00  0.7600E+02
    -15.599  0.0000E+00  0.7600E+02
    -15.459  0.0000E+00  0.7600E+02
    -15.319  0.0000E+00  0.7600E+02
    -15.179  0.0000E+00  0.7600E+02
    -15.039  0.0000E+00  0.7600E+02
    -14.899  0.0000E+00  0.7600E+02
    -14.759  0.0000E+00  0.7600E+02
    -14.619  0.0000E+00  0.7600E+02
    -14.478  0.0000E+00  0.7600E+02
    -14.338  0.1428E+02  0.7800E+02
    -14.198  0.2856E+02  0.8200E+02
    -14.058  0.0000E+00  0.8200E+02
    -13.918  0.0000E+00  0.8200E+02
    -13.778  0.0000E+00  0.8200E+02
    -13.638  0.0000E+00  0.8200E+02
    -13.498  0.0000E+00  0.8200E+02
    -13.358  0.0000E+00  0.8200E+02
    -13.218  0.0000E+00  0.8200E+02
    -13.078  0.0000E+00  0.8200E+02
    -12.938  0.0000E+00  0.8200E+02
    -12.798  0.0000E+00  0.8200E+02
    -12.658  0.0000E+00  0.8200E+02
    -12.517  0.0000E+00  0.8200E+02
    -12.377  0.0000E+00  0.8200E+02
    -12.237  0.0000E+00  0.8200E+02
    -12.097  0.0000E+00  0.8200E+02
    -11.957  0.0000E+00  0.8200E+02
    -11.817  0.0000E+00  0.8200E+02
    -11.677  0.0000E+00  0.8200E+02
    -11.537  0.0000E+00  0.8200E+02
    -11.397  0.0000E+00  0.8200E+02
    -11.257  0.0000E+00  0.8200E+02
    -11.117  0.0000E+00  0.8200E+02
    -10.977  0.0000E+00  0.8200E+02
    -10.837  0.0000E+00  0.8200E+02
    -10.697  0.0000E+00  0.8200E+02
    -10.557  0.0000E+00  0.8200E+02
    -10.416  0.0000E+00  0.8200E+02
    -10.276  0.0000E+00  0.8200E+02
    -10.136  0.0000E+00  0.8200E+02
     -9.996  0.0000E+00  0.8200E+02
     -9.856  0.0000E+00  0.8200E+02
     -9.716  0.0000E+00  0.8200E+02
     -9.576  0.0000E+00  0.8200E+02
     -9.436  0.0000E+00  0.8200E+02
     -9.296  0.0000E+00  0.8200E+02
     -9.156  0.0000E+00  0.8200E+02
     -9.016  0.4060E+02  0.8415E+02
     -8.876  0.4625E+02  0.8770E+02
     -8.736  0.3415E+02  0.9201E+02
     -8.596  0.4327E+02  0.9463E+02
     -8.455  0.4102E+02  0.9841E+02
     -8.315  0.3114E+02  0.1025E+03
     -8.175  0.3465E+02  0.1058E+03
     -8.035  0.2445E+02  0.1092E+03
     -7.895  0.2834E+02  0.1128E+03
     -7.755  0.1546E+02  0.1144E+03
     -7.615  0.3605E+02  0.1183E+03
     -7.475  0.2281E+02  0.1218E+03
     -7.335  0.9028E+01  0.1221E+03
     -7.195  0.7363E+02  0.1279E+03
     -7.055  0.3016E+02  0.1319E+03
     -6.915  0.2982E+02  0.1354E+03
     -6.775  0.3620E+02  0.1383E+03
     -6.635  0.4100E+02  0.1425E+03
     -6.495  0.3834E+02  0.1476E+03
     -6.354  0.3203E+02  0.1515E+03
     -6.214  0.3843E+02  0.1554E+03
     -6.074  0.2075E+02  0.1589E+03
     -5.934  0.1615E+02  0.1620E+03
     -5.794  0.5603E+02  0.1655E+03
     -5.654  0.6363E+02  0.1709E+03
     -5.514  0.4814E+02  0.1753E+03
     -5.374  0.2680E+02  0.1799E+03
     -5.234  0.6603E+02  0.1838E+03
     -5.094  0.6491E+02  0.1908E+03
     -4.954  0.6776E+02  0.1970E+03
     -4.814  0.6049E+02  0.2033E+03
     -4.674  0.5374E+02  0.2087E+03
     -4.534  0.5879E+02  0.2147E+03
     -4.393  0.8722E+02  0.2235E+03
     -4.253  0.1594E+03  0.2318E+03
     -4.113  0.7600E+02  0.2388E+03
     -3.973  0.8165E+02  0.2460E+03
     -3.833  0.7828E+02  0.2529E+03
     -3.693  0.6156E+02  0.2599E+03
     -3.553  0.6660E+02  0.2671E+03
     -3.413  0.5063E+02  0.2723E+03
     -3.273  0.5939E+02  0.2772E+03
     -3.133  0.4534E+02  0.2812E+03
     -2.993  0.1547E+02  0.2840E+03
     -2.853  0.6978E+02  0.2884E+03
     -2.713  0.1785E+02  0.2920E+03
     -2.573  0.1428E+02  0.2940E+03
     -2.432  0.1428E+02  0.2960E+03
     -2.292  0.1223E+03  0.2981E+03
     -2.152  0.7139E+01  0.3000E+03
     -2.012  0.0000E+00  0.3000E+03
     -1.872  0.1912E+02  0.3019E+03
     -1.732  0.3385E+02  0.3025E+03
     -1.592  0.7139E+01  0.3040E+03
     -1.452  0.0000E+00  0.3040E+03
     -1.312  0.4091E+01  0.3042E+03
     -1.172  0.7872E+01  0.3052E+03
     -1.032  0.4129E+01  0.3058E+03
     -0.892  0.1461E+02  0.3069E+03
     -0.752  0.3055E+01  0.3077E+03
     -0.612  0.1173E+02  0.3085E+03
     -0.472  0.1518E+02  0.3102E+03
     -0.331  0.3419E+01  0.3115E+03
     -0.191  0.1995E+01  0.3119E+03
     -0.051  0.0000E+00  0.3120E+03
      0.089  0.0000E+00  0.3120E+03
      0.229  0.1986E+01  0.3122E+03
      0.369  0.4163E+01  0.3125E+03
      0.509  0.9877E+01  0.3137E+03
      0.649  0.7488E+01  0.3149E+03
      0.789  0.7079E+01  0.3158E+03
      0.929  0.1352E+01  0.3162E+03
      1.069  0.1861E+01  0.3165E+03
      1.209  0.2370E+01  0.3167E+03
      1.349  0.5171E+01  0.3175E+03
      1.489  0.2028E+01  0.3180E+03
      1.630  0.2106E+01  0.3183E+03
      1.770  0.2208E+01  0.3186E+03
      1.910  0.1226E+02  0.3193E+03
      2.050  0.0000E+00  0.3200E+03
      2.190  0.8461E+01  0.3209E+03
      2.330  0.3019E+01  0.3214E+03
      2.470  0.2165E+02  0.3230E+03
      2.610  0.1412E+02  0.3248E+03
      2.750  0.1125E+02  0.3268E+03
      2.890  0.2719E+02  0.3291E+03
      3.030  0.1190E+01  0.3300E+03
      3.170  0.1404E+02  0.3319E+03
      3.310  0.2587E+01  0.3324E+03
      3.450  0.2741E+01  0.3328E+03
      3.590  0.9762E+01  0.3338E+03
      3.731  0.2209E+02  0.3353E+03
      3.871  0.1227E+01  0.3360E+03
      4.011  0.3723E+01  0.3364E+03
      4.151  0.6193E+01  0.3372E+03
      4.291  0.5992E+01  0.3379E+03
      4.431  0.2099E+02  0.3392E+03
      4.571  0.1843E+02  0.3406E+03
      4.711  0.2404E+02  0.3438E+03
      4.851  0.2217E+02  0.3462E+03
      4.991  0.2445E+02  0.3482E+03
      5.131  0.4534E+02  0.3512E+03
      5.271  0.9245E+01  0.3534E+03
      5.411  0.2746E+02  0.3561E+03
      5.551  0.1919E+02  0.3582E+03
      5.692  0.1811E+02  0.3605E+03
      5.832  0.1042E+02  0.3620E+03
      5.972  0.1815E+02  0.3645E+03
      6.112  0.1721E+02  0.3666E+03
      6.252  0.1851E+02  0.3689E+03
      6.392  0.1633E+02  0.3711E+03
      6.532  0.1452E+02  0.3731E+03
      6.672  0.1976E+02  0.3753E+03
      6.812  0.2099E+02  0.3779E+03
      6.952  0.1010E+02  0.3794E+03
      7.092  0.1476E+02  0.3810E+03
      7.232  0.0000E+00  0.3820E+03
      7.372  0.1509E+02  0.3837E+03
      7.512  0.0000E+00  0.3840E+03
      7.652  0.0000E+00  0.3840E+03
      7.793  0.0000E+00  0.3840E+03
      7.933  0.0000E+00  0.3840E+03
      8.073  0.0000E+00  0.3840E+03
      8.213  0.0000E+00  0.3840E+03
      8.353  0.0000E+00  0.3840E+03
      8.493  0.0000E+00  0.3840E+03
      8.633  0.0000E+00  0.3840E+03
      8.773  0.0000E+00  0.3840E+03
      8.913  0.0000E+00  0.3840E+03
      9.053  0.0000E+00  0.3840E+03
      9.193  0.0000E+00  0.3840E+03
      9.333  0.0000E+00  0.3840E+03
