Automatically generated mesh
       7
Reciprocal lattice
    0.00000000000000    0.00000000000000    0.00000000000000             1
    0.33333333333334    0.00000000000000    0.00000000000000             2
    0.00000000000000    0.25000000000000    0.00000000000000             2
    0.33333333333334    0.25000000000000    0.00000000000000             2
   -0.33333333333334    0.25000000000000    0.00000000000000             2
    0.00000000000000    0.50000000000000    0.00000000000000             1
    0.33333333333334    0.50000000000000    0.00000000000000             2
Tetrahedra
        34    0.01388888888889
         2         2         4         5         5
         2         2         2         5         5
         4         2         2         2         5
         2         2         4         4         5
         2         2         2         4         5
         2         3         6         7         7
         2         3         4         7         7
         2         3         4         4         7
         2         3         6         6         7
         2         3         3         6         7
         2         3         3         4         7
         2         1         3         4         4
         2         1         2         4         4
         2         1         2         2         4
         2         1         3         3         4
         2         1         1         3         4
         2         1         1         2         4
         2         5         6         6         7
         2         3         5         6         6
         2         3         3         5         6
         2         5         6         7         7
         2         5         5         6         7
         2         3         5         5         6
         2         4         4         5         7
         2         4         4         7         7
         4         4         7         7         7
         2         4         5         5         7
         2         4         5         7         7
         2         1         2         2         3
         2         2         2         3         5
         2         2         3         5         5
         2         1         1         2         3
         2         1         2         3         3
         2         2         3         3         5
