       N       E                     dE             d eps       ncg     rms          rms(c)
DAV:   1     0.302236559284E+04    0.30224E+04   -0.13985E+05  2784   0.139E+03
DAV:   2     0.140559618127E+01   -0.30210E+04   -0.29191E+04  3632   0.343E+02
DAV:   3    -0.497485830211E+03   -0.49889E+03   -0.49652E+03  3192   0.144E+02
DAV:   4    -0.512438382366E+03   -0.14953E+02   -0.14909E+02  3240   0.283E+01
DAV:   5    -0.512861880097E+03   -0.42350E+00   -0.42349E+00  3544   0.425E+00    0.457E+01
RMM:   6    -0.453008662338E+03    0.59853E+02   -0.25509E+02  3164   0.324E+01    0.141E+01
RMM:   7    -0.453545547361E+03   -0.53689E+00   -0.23554E+01  3228   0.879E+00    0.937E+00
RMM:   8    -0.452742769113E+03    0.80278E+00   -0.33368E+00  3212   0.449E+00    0.175E+00
RMM:   9    -0.452675169784E+03    0.67599E-01   -0.11149E+00  3595   0.186E+00    0.108E+00
RMM:  10    -0.452567680289E+03    0.10749E+00   -0.36917E-01  3691   0.109E+00    0.836E-01
RMM:  11    -0.452481478505E+03    0.86202E-01   -0.92335E-02  3987   0.539E-01    0.553E-01
RMM:  12    -0.452415709440E+03    0.65769E-01   -0.82218E-02  3608   0.545E-01    0.357E-01
RMM:  13    -0.452343832166E+03    0.71877E-01   -0.41165E-02  3976   0.304E-01    0.324E-01
RMM:  14    -0.452250691680E+03    0.93140E-01   -0.60560E-02  3878   0.320E-01    0.289E-01
RMM:  15    -0.452182515367E+03    0.68176E-01   -0.46806E-02  3976   0.289E-01    0.212E-01
RMM:  16    -0.452175738272E+03    0.67771E-02   -0.36133E-02  3935   0.325E-01    0.334E-01
RMM:  17    -0.452178374131E+03   -0.26359E-02   -0.12269E-02  3809   0.189E-01    0.164E-01
RMM:  18    -0.452195925345E+03   -0.17551E-01   -0.17298E-02  3882   0.221E-01    0.192E-01
RMM:  19    -0.452200538653E+03   -0.46133E-02   -0.33029E-03  4224   0.871E-02    0.147E-01
RMM:  20    -0.452209992883E+03   -0.94542E-02   -0.44465E-03  3793   0.100E-01    0.121E-01
RMM:  21    -0.452213858660E+03   -0.38658E-02   -0.16588E-03  4004   0.610E-02    0.786E-02
RMM:  22    -0.452216482238E+03   -0.26236E-02   -0.13471E-03  3789   0.556E-02    0.123E-01
RMM:  23    -0.452217307028E+03   -0.82479E-03   -0.37973E-04  4109   0.307E-02    0.663E-02
RMM:  24    -0.452217656280E+03   -0.34925E-03   -0.27332E-04  4111   0.246E-02    0.871E-02
RMM:  25    -0.452217863714E+03   -0.20743E-03   -0.15420E-04  4119   0.180E-02    0.651E-02
RMM:  26    -0.452218002415E+03   -0.13870E-03   -0.13902E-04  3933   0.165E-02    0.881E-02
RMM:  27    -0.452218003317E+03   -0.90153E-06   -0.88707E-05  3957   0.140E-02    0.496E-02
RMM:  28    -0.452218009658E+03   -0.63413E-05   -0.45835E-05  3957   0.108E-02    0.377E-02
RMM:  29    -0.452218166682E+03   -0.15702E-03   -0.14990E-04  4237   0.154E-02    0.785E-02
RMM:  30    -0.452218290419E+03   -0.12374E-03   -0.82463E-05  3916   0.119E-02    0.756E-02
RMM:  31    -0.452218302217E+03   -0.11798E-04   -0.42919E-05  3395   0.867E-03    0.669E-02
RMM:  32    -0.452218454625E+03   -0.15241E-03   -0.11933E-04  4031   0.135E-02    0.507E-02
RMM:  33    -0.452218497832E+03   -0.43208E-04   -0.20634E-05  3062   0.637E-03    0.499E-02
RMM:  34    -0.452218505907E+03   -0.80744E-05   -0.43402E-06  2416   0.300E-03    0.331E-02
RMM:  35    -0.452218514713E+03   -0.88063E-05   -0.30097E-06  2168   0.229E-03    0.367E-02
RMM:  36    -0.452218547824E+03   -0.33111E-04   -0.65717E-06  2660   0.313E-03    0.391E-02
RMM:  37    -0.452218556055E+03   -0.82310E-05   -0.61847E-06  2332   0.296E-03    0.559E-02
RMM:  38    -0.452218555508E+03    0.54658E-06   -0.37748E-06  2232   0.304E-03
   1 F= -.45221856E+03 E0= -.45221856E+03  d E =0.000000E+00
