 vasp.6.3.2 27Jun22 (build Mar 15 2023 15:45:48) complex                        
  
 executed on             LinuxIFC date 2024.07.24  10:38:03
 running on    4 total cores
 distrk:  each k-point on    4 cores,    1 groups
 distr:  one band on NCORE=   1 cores,    4 groups


--------------------------------------------------------------------------------------------------------


 INCAR:
   SYSTEM = ni3al
   PREC = Accurate
   EDIFF = 1E-6
   EDIFFG = -1E-2
   ISTART = 0
   ICHARG = 2
   LREAL = Auto
   NSW = 0
   ISIF = 2
   IBRION = -1
   ISMEAR = -5
   SIGMA = 0.1
   ENCUT = 530
   ALGO = Fast
   LMAXMIX = 4
   AMIN = 0.01
   NELM = 150
   LCHARG = .F.
   LWAVE = .T.
   NCORE = 4
   KPAR = 1
   LELF = .T.

 POTCAR:    PAW_PBE O 08Apr2002                   
 POTCAR:    PAW_PBE F 08Apr2002                   
 POTCAR:    PAW_PBE Al 04Jan2001                  
 POTCAR:    PAW_PBE K_sv 06Sep2000                
 POTCAR:    PAW_PBE O 08Apr2002                   
   VRHFIN =O: s2p4                                                                                  
   LEXCH  = PE                                                                                      
   EATOM  =   432.3788 eV,   31.7789 Ry                                                             
                                                                                                    
   TITEL  = PAW_PBE O 08Apr2002                                                                     
   LULTRA =        F    use ultrasoft PP ?                                                          
   IUNSCR =        1    unscreen: 0-lin 1-nonlin 2-no                                               
   RPACOR =    1.200    partial core radius                                                         
   POMASS =   16.000; ZVAL   =    6.000    mass and valenz                                          
   RCORE  =    1.520    outmost cutoff radius                                                       
   RWIGS  =    1.550; RWIGS  =    0.820    wigner-seitz radius (au A)                               
   ENMAX  =  400.000; ENMIN  =  300.000 eV                                                          
   ICORE  =        2    local potential                                                             
   LCOR   =        T    correct aug charges                                                         
   LPAW   =        T    paw PP                                                                      
   EAUG   =  605.392                                                                                
   DEXC   =    0.000                                                                                
   RMAX   =    1.553    core radius for proj-oper                                                   
   RAUG   =    1.300    factor for augmentation sphere                                              
   RDEP   =    1.550    radius for radial grids                                                     
   RDEPT  =    1.329    core radius for aug-charge                                                  
                                                                                                    
   Atomic configuration                                                                             
    4 entries                                                                                       
     n  l   j            E        occ.                                                              
     1  0  0.50      -514.6923   2.0000                                                             
     2  0  0.50       -23.9615   2.0000                                                             
     2  1  0.50        -9.0305   4.0000                                                             
     3  2  1.50        -9.5241   0.0000                                                             
   Description                                                                                      
     l       E           TYP  RCUT    TYP  RCUT                                                     
     0    -23.9615318     23  1.200                                                                 
     0     -9.5240782     23  1.200                                                                 
     1     -9.0304911     23  1.520                                                                 
     1      8.1634956     23  1.520                                                                 
     2     -9.5240782      7  1.500                                                                 
  local pseudopotential read in
  partial core-charges read in
  partial kinetic energy density read in
  kinetic energy density of atom read in
  atomic valenz-charges read in
  non local Contribution for L=           0  read in
    real space projection operators read in
  non local Contribution for L=           0  read in
    real space projection operators read in
  non local Contribution for L=           1  read in
    real space projection operators read in
  non local Contribution for L=           1  read in
    real space projection operators read in
    PAW grid and wavefunctions read in
 
   number of l-projection  operators is LMAX  =           4
   number of lm-projection operators is LMMAX =           8
 
 POTCAR:    PAW_PBE F 08Apr2002                   
   VRHFIN =F: s2p5                                                                                  
   LEXCH  = PE                                                                                      
   EATOM  =   659.6475 eV,   48.4827 Ry                                                             
                                                                                                    
   TITEL  = PAW_PBE F 08Apr2002                                                                     
   LULTRA =        F    use ultrasoft PP ?                                                          
   IUNSCR =        1    unscreen: 0-lin 1-nonlin 2-no                                               
   RPACOR =    1.200    partial core radius                                                         
   POMASS =   18.998; ZVAL   =    7.000    mass and valenz                                          
   RCORE  =    1.520    outmost cutoff radius                                                       
   RWIGS  =    1.500; RWIGS  =    0.794    wigner-seitz radius (au A)                               
   ENMAX  =  400.000; ENMIN  =  300.000 eV                                                          
   ICORE  =        2    local potential                                                             
   LCOR   =        T    correct aug charges                                                         
   LPAW   =        T    paw PP                                                                      
   EAUG   =  613.614                                                                                
   RMAX   =    1.555    core radius for proj-oper                                                   
   RAUG   =    1.300    factor for augmentation sphere                                              
   RDEP   =    1.539    radius for radial grids                                                     
   RDEPT  =    1.299    core radius for aug-charge                                                  
                                                                                                    
   Atomic configuration                                                                             
    4 entries                                                                                       
     n  l   j            E        occ.                                                              
     1  0  0.50      -663.3661   2.0000                                                             
     2  0  0.50       -29.8995   2.0000                                                             
     2  1  0.50       -11.1114   5.0000                                                             
     3  2  1.50       -10.8847   0.0000                                                             
   Description                                                                                      
     l       E           TYP  RCUT    TYP  RCUT                                                     
     0    -29.8995018     23  1.200                                                                 
     0     -9.5240782     23  1.200                                                                 
     1    -11.1113914     23  1.520                                                                 
     1      1.3605826     23  1.520                                                                 
     2    -10.8846608      7  1.500                                                                 
  local pseudopotential read in
  partial core-charges read in
  partial kinetic energy density read in
  atomic valenz-charges read in
  non local Contribution for L=           0  read in
    real space projection operators read in
  non local Contribution for L=           0  read in
    real space projection operators read in
  non local Contribution for L=           1  read in
    real space projection operators read in
  non local Contribution for L=           1  read in
    real space projection operators read in
    PAW grid and wavefunctions read in
 
   number of l-projection  operators is LMAX  =           4
   number of lm-projection operators is LMMAX =           8
 
 POTCAR:    PAW_PBE Al 04Jan2001                  
   VRHFIN =Al: s2p1                                                                                 
   LEXCH  = PE                                                                                      
   EATOM  =    53.5387 eV,    3.9350 Ry                                                             
                                                                                                    
   TITEL  = PAW_PBE Al 04Jan2001                                                                    
   LULTRA =        F    use ultrasoft PP ?                                                          
   IUNSCR =        1    unscreen: 0-lin 1-nonlin 2-no                                               
   RPACOR =    1.500    partial core radius                                                         
   POMASS =   26.981; ZVAL   =    3.000    mass and valenz                                          
   RCORE  =    1.900    outmost cutoff radius                                                       
   RWIGS  =    2.650; RWIGS  =    1.402    wigner-seitz radius (au A)                               
   ENMAX  =  240.300; ENMIN  =  180.225 eV                                                          
   ICORE  =        2    local potential                                                             
   LCOR   =        T    correct aug charges                                                         
   LPAW   =        T    paw PP                                                                      
   EAUG   =  291.052                                                                                
   DEXC   =    0.000                                                                                
   RMAX   =    1.939    core radius for proj-oper                                                   
   RAUG   =    1.300    factor for augmentation sphere                                              
   RDEP   =    1.966    radius for radial grids                                                     
   RDEPT  =    1.856    core radius for aug-charge                                                  
                                                                                                    
   Atomic configuration                                                                             
    6 entries                                                                                       
     n  l   j            E        occ.                                                              
     1  0  0.50     -1511.1048   2.0000                                                             
     2  0  0.50      -108.1629   2.0000                                                             
     2  1  1.50       -69.6402   6.0000                                                             
     3  0  0.50        -7.7528   2.0000                                                             
     3  1  1.50        -2.7121   1.0000                                                             
     3  2  2.50        -2.7212   0.0000                                                             
   Description                                                                                      
     l       E           TYP  RCUT    TYP  RCUT                                                     
     0     -7.7528455     23  1.900                                                                 
     0     -3.3096929     23  1.900                                                                 
     1     -2.7120682     23  1.900                                                                 
     1     13.6058260     23  1.900                                                                 
     2     -2.7211652      7  1.900                                                                 
  local pseudopotential read in
  partial core-charges read in
  partial kinetic energy density read in
  atomic valenz-charges read in
  non local Contribution for L=           0  read in
    real space projection operators read in
  non local Contribution for L=           0  read in
    real space projection operators read in
  non local Contribution for L=           1  read in
    real space projection operators read in
  non local Contribution for L=           1  read in
    real space projection operators read in
    PAW grid and wavefunctions read in
 
   number of l-projection  operators is LMAX  =           4
   number of lm-projection operators is LMMAX =           8
 
 POTCAR:    PAW_PBE K_sv 06Sep2000                
   VRHFIN =K:  3s3p4s                                                                               
   LEXCH  = PE                                                                                      
   EATOM  =   775.0067 eV,   56.9614 Ry                                                             
                                                                                                    
   TITEL  = PAW_PBE K_sv 06Sep2000                                                                  
   LULTRA =        F    use ultrasoft PP ?                                                          
   IUNSCR =        1    unscreen: 0-lin 1-nonlin 2-no                                               
   RPACOR =    2.200    partial core radius                                                         
   POMASS =   39.098; ZVAL   =    9.000    mass and valenz                                          
   RCORE  =    2.300    outmost cutoff radius                                                       
   RWIGS  =    3.000; RWIGS  =    1.588    wigner-seitz radius (au A)                               
   ENMAX  =  259.264; ENMIN  =  194.448 eV                                                          
   RCLOC  =    2.005    cutoff for local pot                                                        
   LCOR   =        T    correct aug charges                                                         
   LPAW   =        T    paw PP                                                                      
   EAUG   =  427.853                                                                                
   DEXC   =    0.000                                                                                
   RMAX   =    2.358    core radius for proj-oper                                                   
   RAUG   =    1.300    factor for augmentation sphere                                              
   RDEP   =    2.372    radius for radial grids                                                     
   RDEPT  =    2.002    core radius for aug-charge                                                  
                                                                                                    
   Atomic configuration                                                                             
    7 entries                                                                                       
     n  l   j            E        occ.                                                              
     1  0  0.50     -3522.0595   2.0000                                                             
     2  0  0.50      -353.3851   2.0000                                                             
     2  1  1.50      -280.0935   6.0000                                                             
     3  0  0.50       -35.3419   2.0000                                                             
     4  0  0.50        -2.3190   1.0000                                                             
     3  1  1.50       -18.8125   6.0000                                                             
     3  2  1.50        -1.3606   0.0000                                                             
   Description                                                                                      
     l       E           TYP  RCUT    TYP  RCUT                                                     
     0    -35.3418873     23  2.300                                                                 
     0     -2.3190215     23  2.300                                                                 
     1    -18.8124623     23  2.300                                                                 
     1    -20.4087390     23  2.300                                                                 
     2     -1.3605826     23  2.300                                                                 
  local pseudopotential read in
  partial core-charges read in
  partial kinetic energy density read in
  atomic valenz-charges read in
  non local Contribution for L=           0  read in
    real space projection operators read in
  non local Contribution for L=           0  read in
    real space projection operators read in
  non local Contribution for L=           1  read in
    real space projection operators read in
  non local Contribution for L=           1  read in
    real space projection operators read in
  non local Contribution for L=           2  read in
    real space projection operators read in
    PAW grid and wavefunctions read in
 
   number of l-projection  operators is LMAX  =           5
   number of lm-projection operators is LMMAX =          13
 
 Optimization of the real space projectors (new method)

 maximal supplied QI-value         = 24.76
 optimisation between [QCUT,QGAM] = [ 11.64, 23.52] = [ 37.91,154.88] Ry 
 Optimized for a Real-space Cutoff    1.16 Angstroem

   l    n(q)    QCUT    max X(q) W(low)/X(q) W(high)/X(q)  e(spline) 
   0      8    11.635    20.381    0.63E-04    0.20E-03    0.27E-06
   0      8    11.635    15.268    0.67E-04    0.21E-03    0.29E-06
   1      8    11.635     5.964    0.19E-03    0.13E-03    0.31E-06
   1      8    11.635     5.382    0.18E-03    0.10E-03    0.27E-06
 Optimization of the real space projectors (new method)

 maximal supplied QI-value         = 24.76
 optimisation between [QCUT,QGAM] = [ 11.64, 23.52] = [ 37.91,154.88] Ry 
 Optimized for a Real-space Cutoff    1.10 Angstroem

   l    n(q)    QCUT    max X(q) W(low)/X(q) W(high)/X(q)  e(spline) 
   0      8    11.635    14.049    0.72E-04    0.20E-03    0.15E-06
   0      8    11.635     8.945    0.85E-04    0.26E-03    0.20E-06
   1      7    11.635     7.086    0.25E-03    0.28E-03    0.25E-06
   1      7    11.635     6.747    0.23E-03    0.23E-03    0.23E-06
 Optimization of the real space projectors (new method)

 maximal supplied QI-value         = 19.84
 optimisation between [QCUT,QGAM] = [ 11.71, 23.41] = [ 38.38,153.51] Ry 
 Optimized for a Real-space Cutoff    1.20 Angstroem

   l    n(q)    QCUT    max X(q) W(low)/X(q) W(high)/X(q)  e(spline) 
   0      8    11.707   176.870    0.56E-04    0.14E-03    0.47E-07
   0      8    11.707   105.762    0.55E-04    0.13E-03    0.46E-07
   1      8    11.707    55.370    0.15E-03    0.19E-04    0.75E-07
   1      8    11.707    20.208    0.14E-03    0.15E-04    0.69E-07
 Optimization of the real space projectors (new method)

 maximal supplied QI-value         = 16.25
 optimisation between [QCUT,QGAM] = [ 11.70, 23.56] = [ 38.34,155.50] Ry 
 Optimized for a Real-space Cutoff    1.35 Angstroem

   l    n(q)    QCUT    max X(q) W(low)/X(q) W(high)/X(q)  e(spline) 
   0     10    11.701    11.234    0.18E-04    0.29E-04    0.22E-07
   0     10    11.701    12.505    0.24E-04    0.57E-04    0.47E-07
   1      9    11.701   167.359    0.12E-03    0.49E-03    0.44E-06
   1      9    11.701   168.875    0.12E-03    0.49E-03    0.44E-06
   2      9    11.701     3.435    0.48E-04    0.68E-04    0.36E-07
  PAW_PBE O 08Apr2002                   :
 energy of atom  1       EATOM= -432.3788
 kinetic energy error for atom=    0.0203 (will be added to EATOM!!)
  PAW_PBE F 08Apr2002                   :
 energy of atom  2       EATOM= -659.6475
 kinetic energy error for atom=    0.0313 (will be added to EATOM!!)
  PAW_PBE Al 04Jan2001                  :
 energy of atom  3       EATOM=  -53.5387
 kinetic energy error for atom=    0.0002 (will be added to EATOM!!)
  PAW_PBE K_sv 06Sep2000                :
 energy of atom  4       EATOM= -775.0067
 kinetic energy error for atom=    0.0012 (will be added to EATOM!!)
 
 
 POSCAR: SCAR
  positions in direct lattice
  velocities in cartesian coordinates
 exchange correlation table for  LEXCH =        8
   RHO(1)=    0.500       N(1)  =     2000
   RHO(2)=  100.500       N(2)  =     4000

 VTST: version 4.2, (08/11/21)

 CHAIN: initializing optimizer
 
 OPT: Using VASP Dynamics algorithm
 CHAIN: Read ICHAIN            0
 
 POSCAR: SCAR
  positions in direct lattice
  velocities in cartesian coordinates
 


--------------------------------------------------------------------------------------------------------


 ion  position               nearest neighbor table
   1  0.173  0.986  0.062-  42 1.87  45 1.87  41 1.99  51 1.99
   2  0.423  0.486  0.062-  43 1.87  58 1.87  54 1.99  64 1.99
   3  0.097  0.500  0.164-  38 1.87  40 1.87  49 1.99  43 1.99
   4  0.347  0.000  0.164-  39 1.87  41 1.87  62 1.99  56 1.99
   5  0.153  0.333  0.062-  45 1.87  43 1.87  40 1.99  50 1.99
   6  0.403  0.833  0.062-  58 1.87  56 1.87  41 1.99  51 1.99
   7  0.173  0.680  0.062-  43 1.87  44 1.87  41 1.99  51 1.99
   8  0.423  0.180  0.062-  45 1.87  56 1.87  54 1.99  64 1.99
   9  0.077  0.153  0.164-  39 1.87  40 1.87  48 1.99  42 1.99
  10  0.327  0.653  0.164-  52 1.87  41 1.87  49 1.99  43 1.99
  11  0.077  0.847  0.164-  38 1.87  41 1.87  48 1.99  42 1.99
  12  0.327  0.347  0.164-  39 1.87  54 1.87  49 1.99  43 1.99
  13  0.173  0.320  0.265-  46 1.70  49 1.87  39 1.99  66 2.77
  14  0.423  0.820  0.265-  47 1.67  62 1.87  52 1.99
  15  0.153  0.667  0.265-  47 1.67  49 1.87  38 1.99
  16  0.403  0.167  0.265-  60 1.80  62 1.87  39 1.99  66 2.66
  17  0.173  0.014  0.265-  47 1.69  48 1.87  39 1.99  66 2.79
  18  0.423  0.514  0.265-  60 1.76  49 1.87  52 1.99
  19  0.673  0.986  0.062-  56 1.87  59 1.87  55 1.99  65 1.99
  20  0.923  0.486  0.062-  57 1.87  44 1.87  40 1.99  50 1.99
  21  0.597  0.500  0.164-  52 1.87  54 1.87  63 1.99  57 1.99
  22  0.847  0.000  0.164-  53 1.87  55 1.87  48 1.99  42 1.99
  23  0.653  0.333  0.062-  59 1.87  57 1.87  54 1.99  64 1.99
  24  0.903  0.833  0.062-  44 1.87  42 1.87  55 1.99  65 1.99
  25  0.673  0.680  0.062-  57 1.87  58 1.87  55 1.99  65 1.99
  26  0.923  0.180  0.062-  42 1.87  59 1.87  40 1.99  50 1.99
  27  0.577  0.153  0.164-  53 1.87  54 1.87  62 1.99  56 1.99
  28  0.827  0.653  0.164-  38 1.87  55 1.87  63 1.99  57 1.99
  29  0.577  0.847  0.164-  52 1.87  55 1.87  62 1.99  56 1.99
  30  0.827  0.347  0.164-  53 1.87  40 1.87  63 1.99  57 1.99
  31  0.673  0.320  0.265-  60 1.74  63 1.87  53 1.99
  32  0.923  0.820  0.265-  61 1.69  48 1.87  38 1.99
  33  0.653  0.667  0.265-  61 1.68  63 1.87  52 1.99
  34  0.903  0.167  0.265-  46 1.67  48 1.87  53 1.99
  35  0.673  0.014  0.265-  61 1.68  62 1.87  53 1.99
  36  0.923  0.514  0.265-  46 1.66  63 1.87  38 1.99
  37  0.485  0.325  0.371-  60 1.74  66 2.48
  38  0.000  0.667  0.203-  11 1.87  28 1.87   3 1.87  15 1.99  36 1.99  32 1.99  48 2.82  49 2.82
                            63 2.82  47 3.13  46 3.14  61 3.19  41 3.25  55 3.25  40 3.25
  39  0.250  0.167  0.203-  12 1.87   9 1.87   4 1.87  17 1.99  13 1.99  16 1.99  49 2.82  48 2.82
                            62 2.82  47 3.15  46 3.16  54 3.25  40 3.25  41 3.25
  40  0.000  0.333  0.124-  30 1.87   9 1.87   3 1.87  20 1.99  26 1.99   5 1.99  50 2.68  42 2.82
                            43 2.82  57 2.82  46 3.17  53 3.25  39 3.25  38 3.25
  41  0.250  0.833  0.124-  11 1.87  10 1.87   4 1.87   1 1.99   7 1.99   6 1.99  51 2.68  43 2.82
                            42 2.82  56 2.82  47 3.14  52 3.25  38 3.25  39 3.25
  42  0.000  0.000  0.101-  26 1.87   1 1.87  24 1.87  22 1.99   9 1.99  11 1.99  48 2.68  40 2.82
                            41 2.82  55 2.82  44 3.25  45 3.25  59 3.25
  43  0.250  0.500  0.101-   7 1.87   2 1.87   5 1.87   3 1.99  10 1.99  12 1.99  49 2.68  41 2.82
                            40 2.82  54 2.82  45 3.25  44 3.25  58 3.25
  44  0.000  0.667  0.023-  24 1.87   7 1.87  20 1.87  51 2.82  65 2.82  50 2.82  42 3.25  57 3.25
                            43 3.25
  45  0.250  0.167  0.023-   5 1.87   8 1.87   1 1.87  50 2.82  64 2.82  51 2.82  43 3.25  56 3.25
                            42 3.25
  46  0.998  0.334  0.271-  36 1.66  34 1.67  13 1.70  63 2.93  48 2.95  49 2.95  53 3.13  38 3.14
                            39 3.16  40 3.17
  47  0.251  0.831  0.270-  15 1.67  14 1.67  17 1.69  49 2.92  62 2.94  48 2.95  52 3.12  38 3.13
                            41 3.14  39 3.15  66 3.58
  48  0.000  0.000  0.226-  32 1.87  17 1.87  34 1.87  22 1.99   9 1.99  11 1.99  42 2.68  38 2.82
                            39 2.82  53 2.82  46 2.95  47 2.95  61 2.98
  49  0.250  0.500  0.226-  13 1.87  18 1.87  15 1.87   3 1.99  10 1.99  12 1.99  43 2.68  39 2.82
                            38 2.82  52 2.82  47 2.92  46 2.95  60 3.13
  50  0.000  0.333  0.000-  20 1.99  26 1.99   5 1.99  40 2.68  45 2.82  59 2.82  44 2.82
  51  0.250  0.833  0.000-   1 1.99   7 1.99   6 1.99  41 2.68  44 2.82  58 2.82  45 2.82
  52  0.500  0.667  0.203-  29 1.87  10 1.87  21 1.87  33 1.99  18 1.99  14 1.99  62 2.82  49 2.82
                            63 2.82  47 3.12  61 3.18  55 3.25  41 3.25  54 3.25  60 3.35
  53  0.750  0.167  0.203-  30 1.87  27 1.87  22 1.87  35 1.99  31 1.99  34 1.99  63 2.82  62 2.82
                            48 2.82  46 3.13  61 3.19  54 3.25  40 3.25  55 3.25  60 3.36
  54  0.500  0.333  0.124-  12 1.87  27 1.87  21 1.87   2 1.99   8 1.99  23 1.99  64 2.68  56 2.82
                            57 2.82  43 2.82  53 3.25  39 3.25  52 3.25
  55  0.750  0.833  0.124-  29 1.87  28 1.87  22 1.87  19 1.99  25 1.99  24 1.99  65 2.68  57 2.82
                            42 2.82  56 2.82  52 3.25  38 3.25  53 3.25  61 3.26
  56  0.500  0.000  0.101-  19 1.87   6 1.87   8 1.87   4 1.99  27 1.99  29 1.99  62 2.68  54 2.82
                            55 2.82  41 2.82  58 3.25  59 3.25  45 3.25
  57  0.750  0.500  0.101-  25 1.87  20 1.87  23 1.87  21 1.99  28 1.99  30 1.99  63 2.68  55 2.82
                            40 2.82  54 2.82  59 3.25  44 3.25  58 3.25
  58  0.500  0.667  0.023-   6 1.87  25 1.87   2 1.87  51 2.82  65 2.82  64 2.82  56 3.25  43 3.25
                            57 3.25
  59  0.750  0.167  0.023-  23 1.87  26 1.87  19 1.87  50 2.82  64 2.82  65 2.82  57 3.25  56 3.25
                            42 3.25
  60  0.503  0.336  0.291-  31 1.74  37 1.74  18 1.76  16 1.80  63 3.08  49 3.13  62 3.14  66 3.20
                            52 3.35  53 3.36
  61  0.749  0.833  0.275-  33 1.68  35 1.68  32 1.69  62 2.97  63 2.97  48 2.98  52 3.18  53 3.19
                            38 3.19  55 3.26
  62  0.500  0.000  0.226-  14 1.87  35 1.87  16 1.87   4 1.99  27 1.99  29 1.99  56 2.68  52 2.82
                            53 2.82  39 2.82  47 2.94  61 2.97  60 3.14
  63  0.750  0.500  0.226-  31 1.87  36 1.87  33 1.87  21 1.99  28 1.99  30 1.99  57 2.68  53 2.82
                            38 2.82  52 2.82  46 2.93  61 2.97  60 3.08
  64  0.500  0.333  0.000-   2 1.99   8 1.99  23 1.99  54 2.68  45 2.82  59 2.82  58 2.82
  65  0.750  0.833  0.000-  19 1.99  25 1.99  24 1.99  55 2.68  44 2.82  58 2.82  59 2.82
  66  0.265  0.169  0.372-  37 2.48  16 2.66  13 2.77  17 2.79  60 3.20  47 3.58
 
  LATTYP: Found a simple orthorhombic cell.
 ALAT       =     8.3267490000
 B/A-ratio  =     1.1547005920
 C/A-ratio  =     2.5893163106
  
  Lattice vectors:
  
 A1 = (   0.0000000000,  -8.3267490000,   0.0000000000)
 A2 = (   9.6149020000,   0.0000000000,   0.0000000000)
 A3 = (   0.0000000000,   0.0000000000,  21.5605870000)


Analysis of symmetry for initial positions (statically):
=====================================================================
 Subroutine PRICEL returns:
 Original cell was already a primitive cell.
 

 Routine SETGRP: Setting up the symmetry group for a 
 simple orthorhombic supercell.


 Subroutine GETGRP returns: Found  1 space group operations
 (whereof  1 operations were pure point group operations)
 out of a pool of  8 trial point group operations.


The static configuration has the point symmetry C_1 .


Analysis of symmetry for dynamics (positions and initial velocities):
=====================================================================
 Subroutine PRICEL returns:
 Original cell was already a primitive cell.
 

 Routine SETGRP: Setting up the symmetry group for a 
 simple orthorhombic supercell.


 Subroutine GETGRP returns: Found  1 space group operations
 (whereof  1 operations were pure point group operations)
 out of a pool of  8 trial point group operations.


The dynamic configuration has the point symmetry C_1 .


Analysis of constrained symmetry for selective dynamics:
=====================================================================
 Subroutine PRICEL returns:
 Original cell was already a primitive cell.
 

 Routine SETGRP: Setting up the symmetry group for a 
 simple orthorhombic supercell.


 Subroutine GETGRP returns: Found  1 space group operations
 (whereof  1 operations were pure point group operations)
 out of a pool of  8 trial point group operations.


The constrained configuration has the point symmetry C_1 .


 Subroutine INISYM returns: Found  1 space group operations
 (whereof  1 operations are pure point group operations),
 and found     1 'primitive' translations


----------------------------------------------------------------------------------------

                                     Primitive cell                                     

  volume of cell :    1726.1595

  direct lattice vectors                    reciprocal lattice vectors
     9.614902000  0.000000000  0.000000000     0.104005220  0.000000000  0.000000000
     0.000000000  8.326749000  0.000000000     0.000000000  0.120094889  0.000000000
     0.000000000  0.000000000 21.560587000     0.000000000  0.000000000  0.046380926

  length of vectors
     9.614902000  8.326749000 21.560587000     0.104005220  0.120094889  0.046380926

  position of ions in fractional coordinates (direct lattice)
     0.173456000  0.986420000  0.062152000
     0.423456000  0.486420000  0.062152000
     0.096913000  0.500000000  0.163581000
     0.346913000  0.000000000  0.163581000
     0.153088000  0.333333000  0.062152000
     0.403088000  0.833333000  0.062152000
     0.173456000  0.680245000  0.062152000
     0.423456000  0.180246000  0.062152000
     0.076544000  0.153087000  0.163581000
     0.326544000  0.653087000  0.163581000
     0.076544000  0.846912000  0.163581000
     0.326544000  0.346912000  0.163581000
     0.173456000  0.319755000  0.265009000
     0.423456000  0.819755000  0.265009000
     0.153087000  0.666667000  0.265009000
     0.403088000  0.166667000  0.265009000
     0.173456000  0.013580000  0.265009000
     0.423456000  0.513579000  0.265009000
     0.673456000  0.986420000  0.062152000
     0.923456000  0.486420000  0.062152000
     0.596913000  0.500000000  0.163581000
     0.846913000  0.000000000  0.163581000
     0.653088000  0.333333000  0.062152000
     0.903088000  0.833333000  0.062152000
     0.673456000  0.680245000  0.062152000
     0.923456000  0.180245000  0.062152000
     0.576544000  0.153087000  0.163581000
     0.826544000  0.653087000  0.163581000
     0.576544000  0.846912000  0.163581000
     0.826544000  0.346912000  0.163581000
     0.673456000  0.319755000  0.265009000
     0.923456000  0.819755000  0.265009000
     0.653087000  0.666667000  0.265009000
     0.903088000  0.166667000  0.265009000
     0.673456000  0.013579000  0.265009000
     0.923456000  0.513580000  0.265009000
     0.484603177  0.325131320  0.371403118
     0.000000000  0.666667000  0.202858000
     0.250000000  0.166667000  0.202858000
     0.000000000  0.333333000  0.124303000
     0.250000000  0.833333000  0.124303000
     0.000000000  0.000000000  0.101429000
     0.250000000  0.500000000  0.101429000
     0.000000000  0.666667000  0.022875000
     0.250000000  0.166667000  0.022875000
     0.998116741  0.334125405  0.271120625
     0.250826070  0.831285890  0.269963754
     0.000000000  0.000000000  0.225732000
     0.250000000  0.500000000  0.225732000
     0.000000000  0.333333000  0.000000000
     0.250000000  0.833333000  0.000000000
     0.500000000  0.666667000  0.202858000
     0.750000000  0.166667000  0.202858000
     0.500000000  0.333333000  0.124303000
     0.750000000  0.833333000  0.124303000
     0.500000000  0.000000000  0.101429000
     0.750000000  0.500000000  0.101429000
     0.500000000  0.666667000  0.022875000
     0.750000000  0.166667000  0.022875000
     0.502987887  0.336149078  0.291236949
     0.749373390  0.833195084  0.275348216
     0.500000000  0.000000000  0.225732000
     0.750000000  0.500000000  0.225732000
     0.500000000  0.333333000  0.000000000
     0.750000000  0.833333000  0.000000000
     0.265237276  0.168903347  0.372218381

  ion indices of the primitive-cell ions
   primitive index   ion index
                 1           1
                 2           2
                 3           3
                 4           4
                 5           5
                 6           6
                 7           7
                 8           8
                 9           9
                10          10
                11          11
                12          12
                13          13
                14          14
                15          15
                16          16
                17          17
                18          18
                19          19
                20          20
                21          21
                22          22
                23          23
                24          24
                25          25
                26          26
                27          27
                28          28
                29          29
                30          30
                31          31
                32          32
                33          33
                34          34
                35          35
                36          36
                37          37
                38          38
                39          39
                40          40
                41          41
                42          42
                43          43
                44          44
                45          45
                46          46
                47          47
                48          48
                49          49
                50          50
                51          51
                52          52
                53          53
                54          54
                55          55
                56          56
                57          57
                58          58
                59          59
                60          60
                61          61
                62          62
                63          63
                64          64
                65          65
                66          66

----------------------------------------------------------------------------------------

 
 
 KPOINTS: K-Spacing Value to Generate K-Mesh: 0.03

Automatic generation of k-mesh.
 Grid dimensions read from file:
 generate k-points for:    3    4    1

 Generating k-lattice:

  Cartesian coordinates                     Fractional coordinates (reciprocal lattice)
     0.034668407  0.000000000  0.000000000     0.333333333  0.000000000  0.000000000
     0.000000000  0.030023722  0.000000000     0.000000000  0.250000000  0.000000000
     0.000000000  0.000000000  0.046380926     0.000000000  0.000000000  1.000000000

  Length of vectors
     0.034668407  0.030023722  0.046380926

  Shift w.r.t. Gamma in fractional coordinates (k-lattice)
     0.000000000  0.000000000  0.000000000

 TETIRR: Found     34 inequivalent tetrahedra from       72
 
 Subroutine IBZKPT returns following result:
 ===========================================
 
 Found      7 irreducible k-points:
 
 Following reciprocal coordinates:
            Coordinates               Weight
  0.000000  0.000000  0.000000      1.000000
  0.333333  0.000000  0.000000      2.000000
  0.000000  0.250000  0.000000      2.000000
  0.333333  0.250000  0.000000      2.000000
 -0.333333  0.250000  0.000000      2.000000
  0.000000  0.500000  0.000000      1.000000
  0.333333  0.500000  0.000000      2.000000
 
 Following cartesian coordinates:
            Coordinates               Weight
  0.000000  0.000000  0.000000      1.000000
  0.034668  0.000000  0.000000      2.000000
  0.000000  0.030024  0.000000      2.000000
  0.034668  0.030024  0.000000      2.000000
 -0.034668  0.030024  0.000000      2.000000
  0.000000  0.060047  0.000000      1.000000
  0.034668  0.060047  0.000000      2.000000
 


--------------------------------------------------------------------------------------------------------




 Dimension of arrays:
   k-points           NKPTS =      7   k-points in BZ     NKDIM =      7   number of bands    NBANDS=    192
   number of dos      NEDOS =    301   number of ions     NIONS =     66
   non local maximal  LDIM  =      5   non local SUM 2l+1 LMDIM =     13
   total plane-waves  NPLWV = 746496
   max r-space proj   IRMAX =   4505   max aug-charges    IRDMAX=  20326
   dimension x,y,z NGX =    72 NGY =   64 NGZ =  162
   dimension x,y,z NGXF=   144 NGYF=  128 NGZF=  324
   support grid    NGXF=   144 NGYF=  128 NGZF=  324
   ions per type =              36   1  28   1
   NGX,Y,Z   is equivalent  to a cutoff of  12.45, 12.78, 12.49 a.u.
   NGXF,Y,Z  is equivalent  to a cutoff of  24.90, 25.56, 24.98 a.u.

 SYSTEM =  ni3al                                   
 POSCAR =  SCAR                                    

 Startparameter for this run:
   NWRITE =      2    write-flag & timer
   PREC   = accura    normal or accurate (medium, high low for compatibility)
   ISTART =      0    job   : 0-new  1-cont  2-samecut
   ICHARG =      2    charge: 1-file 2-atom 10-const
   ISPIN  =      1    spin polarized calculation?
   LNONCOLLINEAR =      F non collinear calculations
   LSORBIT =      F    spin-orbit coupling
   INIWAV =      1    electr: 0-lowe 1-rand  2-diag
   LASPH  =      F    aspherical Exc in radial PAW
 Electronic Relaxation 1
   ENCUT  =  530.0 eV  38.95 Ry    6.24 a.u.  18.05 15.63 40.47*2*pi/ulx,y,z
   ENINI  =  530.0     initial cutoff
   ENAUG  =  613.6 eV  augmentation charge cutoff
   NELM   =    150;   NELMIN=  2; NELMDL= -5     # of ELM steps 
   EDIFF  = 0.1E-05   stopping-criterion for ELM
   LREAL  =      T    real-space projection
   NLSPLINE    = F    spline interpolate recip. space projectors
   LCOMPAT=      F    compatible to vasp.4.4
   GGA_COMPAT  = T    GGA compatible to vasp.4.4-vasp.4.6
   LMAXPAW     = -100 max onsite density
   LMAXMIX     =    4 max onsite mixed and CHGCAR
   VOSKOWN=      0    Vosko Wilk Nusair interpolation
   ROPT   =   -0.00025  -0.00025  -0.00025  -0.00025
 Ionic relaxation
   EDIFFG = -.1E-01   stopping-criterion for IOM
   NSW    =      0    number of steps for IOM
   NBLOCK =      1;   KBLOCK =      1    inner block; outer block 
   IBRION =     -1    ionic relax: 0-MD 1-quasi-New 2-CG
   NFREE  =      0    steps in history (QN), initial steepest desc. (CG)
   ISIF   =      2    stress and relaxation
   IWAVPR =     10    prediction:  0-non 1-charg 2-wave 3-comb
   ISYM   =      2    0-nonsym 1-usesym 2-fastsym
   LCORR  =      T    Harris-Foulkes like correction to forces

   POTIM  = 0.5000    time-step for ionic-motion
   TEIN   =    0.0    initial temperature
   TEBEG  =    0.0;   TEEND  =   0.0 temperature during run
   SMASS  =  -3.00    Nose mass-parameter (am)
   estimated Nose-frequenzy (Omega)   =  0.10E-29 period in steps = 0.13E+47 mass=  -0.211E-26a.u.
   SCALEE = 1.0000    scale energy and forces
   NPACO  =    256;   APACO  = 10.0  distance and # of slots for P.C.
   PSTRESS=    0.0 pullay stress

  Mass of Ions in am
   POMASS =  16.00 19.00 26.98 39.10
  Ionic Valenz
   ZVAL   =   6.00  7.00  3.00  9.00
  Atomic Wigner-Seitz radii
   RWIGS  =  -1.00 -1.00 -1.00 -1.00
  virtual crystal weights 
   VCA    =   1.00  1.00  1.00  1.00
   NELECT =     316.0000    total number of electrons
   NUPDOWN=      -1.0000    fix difference up-down

 DOS related values:
   EMIN   =  10.00;   EMAX   =-10.00  energy-range for DOS
   EFERMI =   0.00
   ISMEAR =    -5;   SIGMA  =   0.10  broadening in eV -4-tet -1-fermi 0-gaus

 Electronic relaxation 2 (details)
   IALGO  =     68    algorithm
   LDIAG  =      T    sub-space diagonalisation (order eigenvalues)
   LSUBROT=      F    optimize rotation matrix (better conditioning)
   TURBO    =      0    0=normal 1=particle mesh
   IRESTART =      0    0=no restart 2=restart with 2 vectors
   NREBOOT  =      0    no. of reboots
   NMIN     =      0    reboot dimension
   EREF     =   0.00    reference energy to select bands
   IMIX   =      4    mixing-type and parameters
     AMIX     =   0.40;   BMIX     =  1.00
     AMIX_MAG =   1.60;   BMIX_MAG =  1.00
     AMIN     =   0.01
     WC   =   100.;   INIMIX=   1;  MIXPRE=   1;  MAXMIX= -45

 Intra band minimization:
   WEIMIN = 0.0000     energy-eigenvalue tresh-hold
   EBREAK =  0.13E-08  absolut break condition
   DEPER  =   0.30     relativ break condition  

   TIME   =   0.40     timestep for ELM

  volume/ion in A,a.u.               =      26.15       176.50
  Fermi-wavevector in a.u.,A,eV,Ry     =   0.929559  1.756612 11.756517  0.864080
  Thomas-Fermi vector in A             =   2.055854
 
 Write flags
   LWAVE        =      T    write WAVECAR
   LDOWNSAMPLE  =      F    k-point downsampling of WAVECAR
   LCHARG       =      F    write CHGCAR
   LVTOT        =      F    write LOCPOT, total local potential
   LVHAR        =      F    write LOCPOT, Hartree potential only
   LELF         =      T    write electronic localiz. function (ELF)
   LORBIT       =      0    0 simple, 1 ext, 2 COOP (PROOUT), +10 PAW based schemes


 Dipole corrections
   LMONO  =      F    monopole corrections only (constant potential shift)
   LDIPOL =      F    correct potential (dipole corrections)
   IDIPOL =      0    1-x, 2-y, 3-z, 4-all directions 
   EPSILON=  1.0000000 bulk dielectric constant

 Exchange correlation treatment:
   GGA     =    --    GGA type
   LEXCH   =     8    internal setting for exchange type
   LIBXC   =     F    Libxc                    
   VOSKOWN =     0    Vosko Wilk Nusair interpolation
   LHFCALC =     F    Hartree Fock is set to
   LHFONE  =     F    Hartree Fock one center treatment
   AEXX    =    0.0000 exact exchange contribution

 Linear response parameters
   LEPSILON=     F    determine dielectric tensor
   LRPA    =     F    only Hartree local field effects (RPA)
   LNABLA  =     F    use nabla operator in PAW spheres
   LVEL    =     F    velocity operator in full k-point grid
   CSHIFT  =0.1000    complex shift for real part using Kramers Kronig
   OMEGAMAX=  -1.0    maximum frequency
   DEG_THRESHOLD= 0.2000000E-02 threshold for treating states as degnerate
   RTIME   =   -0.100 relaxation time in fs
  (WPLASMAI=    0.000 imaginary part of plasma frequency in eV, 0.658/RTIME)
   DFIELD  = 0.0000000 0.0000000 0.0000000 field for delta impulse in time
 
  Optional k-point grid parameters
   LKPOINTS_OPT  =     F    use optional k-point grid
   KPOINTS_OPT_MODE=     1    mode for optional k-point grid
 
 Orbital magnetization related:
   ORBITALMAG=     F  switch on orbital magnetization
   LCHIMAG   =     F  perturbation theory with respect to B field
   DQ        =  0.001000  dq finite difference perturbation B field
   LLRAUG    =     F  two centre corrections for induced B field



--------------------------------------------------------------------------------------------------------


 Static calculation
 charge density and potential will be updated during run
 non-spin polarized calculation
 RMM-DIIS sequential band-by-band and
  variant of blocked Davidson during initial phase
 perform sub-space diagonalisation
    before iterative eigenvector-optimisation
 modified Broyden-mixing scheme, WC =      100.0
 initial mixing is a Kerker type mixing with AMIX =  0.4000 and BMIX =      1.0000
 Hartree-type preconditioning will be used
 using additional bands           34
 real space projection scheme for non local part
 use partial core corrections
 calculate Harris-corrections to forces 
   (improved forces if not selfconsistent)
 use gradient corrections 
 use of overlap-Matrix (Vanderbilt PP)
 Fermi weights with tetrahedron method with Bloechl corrections


--------------------------------------------------------------------------------------------------------


  energy-cutoff  :      530.00
  volume of cell :     1726.16
      direct lattice vectors                 reciprocal lattice vectors
     9.614902000  0.000000000  0.000000000     0.104005220  0.000000000  0.000000000
     0.000000000  8.326749000  0.000000000     0.000000000  0.120094889  0.000000000
     0.000000000  0.000000000 21.560587000     0.000000000  0.000000000  0.046380926

  length of vectors
     9.614902000  8.326749000 21.560587000     0.104005220  0.120094889  0.046380926


 
 k-points in units of 2pi/SCALE and weight: K-Spacing Value to Generate K-Mesh: 0.03
   0.00000000  0.00000000  0.00000000       0.083
   0.03466841  0.00000000  0.00000000       0.167
   0.00000000  0.03002372  0.00000000       0.167
   0.03466841  0.03002372  0.00000000       0.167
  -0.03466841  0.03002372  0.00000000       0.167
   0.00000000  0.06004744  0.00000000       0.083
   0.03466841  0.06004744  0.00000000       0.167
 
 k-points in reciprocal lattice and weights: K-Spacing Value to Generate K-Mesh: 0.03
   0.00000000  0.00000000  0.00000000       0.083
   0.33333333  0.00000000  0.00000000       0.167
   0.00000000  0.25000000  0.00000000       0.167
   0.33333333  0.25000000  0.00000000       0.167
  -0.33333333  0.25000000  0.00000000       0.167
   0.00000000  0.50000000  0.00000000       0.083
   0.33333333  0.50000000  0.00000000       0.167
 
 position of ions in fractional coordinates (direct lattice) 
   0.17345600  0.98642000  0.06215200
   0.42345600  0.48642000  0.06215200
   0.09691300  0.50000000  0.16358100
   0.34691300  0.00000000  0.16358100
   0.15308800  0.33333300  0.06215200
   0.40308800  0.83333300  0.06215200
   0.17345600  0.68024500  0.06215200
   0.42345600  0.18024600  0.06215200
   0.07654400  0.15308700  0.16358100
   0.32654400  0.65308700  0.16358100
   0.07654400  0.84691200  0.16358100
   0.32654400  0.34691200  0.16358100
   0.17345600  0.31975500  0.26500900
   0.42345600  0.81975500  0.26500900
   0.15308700  0.66666700  0.26500900
   0.40308800  0.16666700  0.26500900
   0.17345600  0.01358000  0.26500900
   0.42345600  0.51357900  0.26500900
   0.67345600  0.98642000  0.06215200
   0.92345600  0.48642000  0.06215200
   0.59691300  0.50000000  0.16358100
   0.84691300  0.00000000  0.16358100
   0.65308800  0.33333300  0.06215200
   0.90308800  0.83333300  0.06215200
   0.67345600  0.68024500  0.06215200
   0.92345600  0.18024500  0.06215200
   0.57654400  0.15308700  0.16358100
   0.82654400  0.65308700  0.16358100
   0.57654400  0.84691200  0.16358100
   0.82654400  0.34691200  0.16358100
   0.67345600  0.31975500  0.26500900
   0.92345600  0.81975500  0.26500900
   0.65308700  0.66666700  0.26500900
   0.90308800  0.16666700  0.26500900
   0.67345600  0.01357900  0.26500900
   0.92345600  0.51358000  0.26500900
   0.48460318  0.32513132  0.37140312
   0.00000000  0.66666700  0.20285800
   0.25000000  0.16666700  0.20285800
   0.00000000  0.33333300  0.12430300
   0.25000000  0.83333300  0.12430300
   0.00000000  0.00000000  0.10142900
   0.25000000  0.50000000  0.10142900
   0.00000000  0.66666700  0.02287500
   0.25000000  0.16666700  0.02287500
   0.99811674  0.33412541  0.27112062
   0.25082607  0.83128589  0.26996375
   0.00000000  0.00000000  0.22573200
   0.25000000  0.50000000  0.22573200
   0.00000000  0.33333300  0.00000000
   0.25000000  0.83333300  0.00000000
   0.50000000  0.66666700  0.20285800
   0.75000000  0.16666700  0.20285800
   0.50000000  0.33333300  0.12430300
   0.75000000  0.83333300  0.12430300
   0.50000000  0.00000000  0.10142900
   0.75000000  0.50000000  0.10142900
   0.50000000  0.66666700  0.02287500
   0.75000000  0.16666700  0.02287500
   0.50298789  0.33614908  0.29123695
   0.74937339  0.83319508  0.27534822
   0.50000000  0.00000000  0.22573200
   0.75000000  0.50000000  0.22573200
   0.50000000  0.33333300  0.00000000
   0.75000000  0.83333300  0.00000000
   0.26523728  0.16890335  0.37221838
 
 position of ions in cartesian coordinates  (Angst):
   1.66776244  8.21367175  1.34003360
   4.07148794  4.05029725  1.34003360
   0.93180900  4.16337450  3.52690238
   3.33553450  0.00000000  3.52690238
   1.47192612  2.77558022  1.34003360
   3.87565162  6.93895472  1.34003360
   1.66776244  5.66422937  1.34003360
   4.07148794  1.50086320  1.34003360
   0.73596306  1.27471702  3.52690238
   3.13968856  5.43809152  3.52690238
   0.73596306  7.05202365  3.52690238
   3.13968856  2.88864915  3.52690238
   1.66776244  2.66251963  5.71374960
   4.07148794  6.82589413  5.71374960
   1.47191650  5.55116878  5.71374960
   3.87565162  1.38779428  5.71374960
   1.66776244  0.11307725  5.71374960
   4.07148794  4.27644342  5.71374960
   6.47521344  8.21367175  1.34003360
   8.87893894  4.05029725  1.34003360
   5.73926000  4.16337450  3.52690238
   8.14298550  0.00000000  3.52690238
   6.27937712  2.77558022  1.34003360
   8.68310262  6.93895472  1.34003360
   6.47521344  5.66422937  1.34003360
   8.87893894  1.50085487  1.34003360
   5.54341406  1.27471702  3.52690238
   7.94713956  5.43809152  3.52690238
   5.54341406  7.05202365  3.52690238
   7.94713956  2.88864915  3.52690238
   6.47521344  2.66251963  5.71374960
   8.87893894  6.82589413  5.71374960
   6.27936750  5.55116878  5.71374960
   8.68310262  1.38779428  5.71374960
   6.47521344  0.11306892  5.71374960
   8.87893894  4.27645175  5.71374960
   4.65941206  2.70728689  8.00766924
   0.00000000  5.55116878  4.37373756
   2.40372550  1.38779428  4.37373756
   0.00000000  2.77558022  2.68004565
   2.40372550  6.93895472  2.68004565
   0.00000000  0.00000000  2.18686878
   2.40372550  4.16337450  2.18686878
   0.00000000  5.55116878  0.49319843
   2.40372550  1.38779428  0.49319843
   9.59679465  2.78217838  5.84551982
   2.41166809  6.92190895  5.82057700
   0.00000000  0.00000000  4.86691442
   2.40372550  4.16337450  4.86691442
   0.00000000  2.77558022  0.00000000
   2.40372550  6.93895472  0.00000000
   4.80745100  5.55116878  4.37373756
   7.21117650  1.38779428  4.37373756
   4.80745100  2.77558022  2.68004565
   7.21117650  6.93895472  2.68004565
   4.80745100  0.00000000  2.18686878
   7.21117650  4.16337450  2.18686878
   4.80745100  5.55116878  0.49319843
   7.21117650  1.38779428  0.49319843
   4.83617924  2.79902900  6.27923958
   7.20515171  6.93780633  5.93666916
   4.80745100  0.00000000  4.86691442
   7.21117650  4.16337450  4.86691442
   4.80745100  2.77558022  0.00000000
   7.21117650  6.93895472  0.00000000
   2.55023041  1.40641577  8.02524678
 


--------------------------------------------------------------------------------------------------------


 k-point   1 :   0.0000 0.0000 0.0000  plane waves:   47839
 k-point   2 :   0.3333 0.0000 0.0000  plane waves:   47902
 k-point   3 :   0.0000 0.2500 0.0000  plane waves:   47799
 k-point   4 :   0.3333 0.2500 0.0000  plane waves:   47841
 k-point   5 :  -0.3333 0.2500 0.0000  plane waves:   47841
 k-point   6 :   0.0000 0.5000 0.0000  plane waves:   47844
 k-point   7 :   0.3333 0.5000 0.0000  plane waves:   47806

 maximum and minimum number of plane-waves per node :     47902    47799

 maximum number of plane-waves:     47902
 maximum index in each direction: 
   IXMAX=   18   IYMAX=   15   IZMAX=   40
   IXMIN=  -18   IYMIN=  -16   IZMIN=  -40


 serial   3D FFT for wavefunctions
 parallel 3D FFT for charge:
    minimum data exchange during FFTs selected (reduces bandwidth)


 total amount of memory used by VASP MPI-rank0   500894. kBytes
=======================================================================

   base      :      30000. kBytes
   nonlr-proj:      18650. kBytes
   fftplans  :      53351. kBytes
   grid      :     137945. kBytes
   one-center:        535. kBytes
   wavefun   :     260413. kBytes
 
     INWAV:  cpu time      0.0003: real time      0.0000
 Broyden mixing: mesh for mixing (old mesh)
   NGX = 37   NGY = 31   NGZ = 81
  (NGX  =144   NGY  =128   NGZ  =324)
  gives a total of  92907 points

 initial charge density was supplied:
 charge density of overlapping atoms calculated
 number of electron     316.0000000 magnetization 
 keeping initial charge density in first step


--------------------------------------------------------------------------------------------------------


 Maximum index for non-local projection operator         4316
 Maximum index for augmentation-charges         4899 (set IRDMAX)


--------------------------------------------------------------------------------------------------------


 First call to EWALD:  gamma=   0.148
 Maximum number of real-space cells 3x 4x 2
 Maximum number of reciprocal cells 2x 2x 5

    FEWALD:  cpu time      0.0118: real time      0.0059


--------------------------------------- Iteration      1(   1)  ---------------------------------------


    POTLOK:  cpu time      3.0801: real time      0.4476
    SETDIJ:  cpu time      0.2336: real time      0.0334
     EDDAV:  cpu time     35.6315: real time      5.1543
 BZINTS: Fermi energy:   11.895784;  316.000000 electrons
         Band energy:-0.595841E+03;  BLOECHL correction:   -0.042336
       DOS:  cpu time      0.1759: real time      0.0269
    --------------------------------------------
      LOOP:  cpu time     39.1214: real time      5.6624

 eigenvalue-minimisations  :  2784
 total energy-change (2. order) : 0.3022366E+04  (-0.1398534E+05)
 number of electron     316.0000000 magnetization 
 augmentation part      316.0000000 magnetization 

 Free energy of the ion-electron system (eV)
  ---------------------------------------------------
  alpha Z        PSCENC =       176.72120775
  Ewald energy   TEWEN  =     74706.88310488
  -Hartree energ DENC   =    -90946.19169234
  -exchange      EXHF   =         0.00000000
  -V(xc)+E(xc)   XCENC  =       352.26950386
  PAW double counting   =     15462.61785476   -14632.69968608
  entropy T*S    EENTRO =         0.00000000
  eigenvalues    EBANDS =      -595.84057362
  atomic energy  EATOM  =     18498.60587364
  Solvation  Ediel_sol  =         0.00000000
  ---------------------------------------------------
  free energy    TOTEN  =      3022.36559284 eV

  energy without entropy =     3022.36559284  energy(sigma->0) =     3022.36559284


--------------------------------------------------------------------------------------------------------




--------------------------------------- Iteration      1(   2)  ---------------------------------------


     EDDAV:  cpu time     43.2027: real time      6.2075
 BZINTS: Fermi energy:    0.965987;  316.000000 electrons
         Band energy:-0.361680E+04;  BLOECHL correction:   -0.058390
       DOS:  cpu time      0.0951: real time      0.0136
    --------------------------------------------
      LOOP:  cpu time     43.2976: real time      6.2211

 eigenvalue-minimisations  :  3632
 total energy-change (2. order) :-0.3020960E+04  (-0.2919065E+04)
 number of electron     316.0000000 magnetization 
 augmentation part      316.0000000 magnetization 

 Free energy of the ion-electron system (eV)
  ---------------------------------------------------
  alpha Z        PSCENC =       176.72120775
  Ewald energy   TEWEN  =     74706.88310488
  -Hartree energ DENC   =    -90946.19169234
  -exchange      EXHF   =         0.00000000
  -V(xc)+E(xc)   XCENC  =       352.26950386
  PAW double counting   =     15462.61785476   -14632.69968608
  entropy T*S    EENTRO =         0.00000000
  eigenvalues    EBANDS =     -3616.80057028
  atomic energy  EATOM  =     18498.60587364
  Solvation  Ediel_sol  =         0.00000000
  ---------------------------------------------------
  free energy    TOTEN  =         1.40559618 eV

  energy without entropy =        1.40559618  energy(sigma->0) =        1.40559618


--------------------------------------------------------------------------------------------------------




--------------------------------------- Iteration      1(   3)  ---------------------------------------


     EDDAV:  cpu time     39.5324: real time      5.6865
 BZINTS: Fermi energy:   -0.245693;  316.000000 electrons
         Band energy:-0.411569E+04;  BLOECHL correction:   -0.054924
       DOS:  cpu time      0.0953: real time      0.0136
    --------------------------------------------
      LOOP:  cpu time     39.6276: real time      5.7002

 eigenvalue-minimisations  :  3192
 total energy-change (2. order) :-0.4988914E+03  (-0.4965163E+03)
 number of electron     316.0000000 magnetization 
 augmentation part      316.0000000 magnetization 

 Free energy of the ion-electron system (eV)
  ---------------------------------------------------
  alpha Z        PSCENC =       176.72120775
  Ewald energy   TEWEN  =     74706.88310488
  -Hartree energ DENC   =    -90946.19169234
  -exchange      EXHF   =         0.00000000
  -V(xc)+E(xc)   XCENC  =       352.26950386
  PAW double counting   =     15462.61785476   -14632.69968608
  entropy T*S    EENTRO =         0.00000000
  eigenvalues    EBANDS =     -4115.69199668
  atomic energy  EATOM  =     18498.60587364
  Solvation  Ediel_sol  =         0.00000000
  ---------------------------------------------------
  free energy    TOTEN  =      -497.48583021 eV

  energy without entropy =     -497.48583021  energy(sigma->0) =     -497.48583021


--------------------------------------------------------------------------------------------------------




--------------------------------------- Iteration      1(   4)  ---------------------------------------


     EDDAV:  cpu time     39.6042: real time      5.6907
 BZINTS: Fermi energy:   -0.288897;  316.000000 electrons
         Band energy:-0.413064E+04;  BLOECHL correction:   -0.055128
       DOS:  cpu time      0.0951: real time      0.0136
    --------------------------------------------
      LOOP:  cpu time     39.6993: real time      5.7043

 eigenvalue-minimisations  :  3240
 total energy-change (2. order) :-0.1495255E+02  (-0.1490939E+02)
 number of electron     316.0000000 magnetization 
 augmentation part      316.0000000 magnetization 

 Free energy of the ion-electron system (eV)
  ---------------------------------------------------
  alpha Z        PSCENC =       176.72120775
  Ewald energy   TEWEN  =     74706.88310488
  -Hartree energ DENC   =    -90946.19169234
  -exchange      EXHF   =         0.00000000
  -V(xc)+E(xc)   XCENC  =       352.26950386
  PAW double counting   =     15462.61785476   -14632.69968608
  entropy T*S    EENTRO =         0.00000000
  eigenvalues    EBANDS =     -4130.64454883
  atomic energy  EATOM  =     18498.60587364
  Solvation  Ediel_sol  =         0.00000000
  ---------------------------------------------------
  free energy    TOTEN  =      -512.43838237 eV

  energy without entropy =     -512.43838237  energy(sigma->0) =     -512.43838237


--------------------------------------------------------------------------------------------------------




--------------------------------------- Iteration      1(   5)  ---------------------------------------


     EDDAV:  cpu time     42.5299: real time      6.1111
 BZINTS: Fermi energy:   -0.291303;  316.000000 electrons
         Band energy:-0.413107E+04;  BLOECHL correction:   -0.054502
       DOS:  cpu time      0.0860: real time      0.0123
    CHARGE:  cpu time      0.9744: real time      0.1395
    MIXING:  cpu time      0.1197: real time      0.0179
    --------------------------------------------
      LOOP:  cpu time     43.7104: real time      6.2808

 eigenvalue-minimisations  :  3544
 total energy-change (2. order) :-0.4234977E+00  (-0.4234938E+00)
 number of electron     315.9999799 magnetization 
 augmentation part       31.0936332 magnetization 

 Broyden mixing:
  rms(total) = 0.45666E+01    rms(broyden)= 0.45657E+01
  rms(prec ) = 0.49357E+01
  weight for this iteration     100.00

 Free energy of the ion-electron system (eV)
  ---------------------------------------------------
  alpha Z        PSCENC =       176.72120775
  Ewald energy   TEWEN  =     74706.88310488
  -Hartree energ DENC   =    -90946.19169234
  -exchange      EXHF   =         0.00000000
  -V(xc)+E(xc)   XCENC  =       352.26950386
  PAW double counting   =     15462.61785476   -14632.69968608
  entropy T*S    EENTRO =         0.00000000
  eigenvalues    EBANDS =     -4131.06804656
  atomic energy  EATOM  =     18498.60587364
  Solvation  Ediel_sol  =         0.00000000
  ---------------------------------------------------
  free energy    TOTEN  =      -512.86188010 eV

  energy without entropy =     -512.86188010  energy(sigma->0) =     -512.86188010


--------------------------------------------------------------------------------------------------------




--------------------------------------- Iteration      1(   6)  ---------------------------------------


    POTLOK:  cpu time      2.9374: real time      0.4199
    SETDIJ:  cpu time      0.2305: real time      0.0329
    EDDIAG:  cpu time      4.1177: real time      0.5908
  RMM-DIIS:  cpu time      3.8903: real time      1.5476
    ORTHCH:  cpu time      0.5997: real time      0.3054
 BZINTS: Fermi energy:   -0.180366;  316.000000 electrons
         Band energy:-0.338440E+04;  BLOECHL correction:   -0.050781
       DOS:  cpu time      0.0268: real time      0.0134
    CHARGE:  cpu time      0.4709: real time      0.1376
    MIXING:  cpu time      0.1025: real time      0.0147
    --------------------------------------------
      LOOP:  cpu time     12.3757: real time      3.0623

 eigenvalue-minimisations  :  3164
 total energy-change (2. order) : 0.5985322E+02  (-0.2550880E+02)
 number of electron     315.9999830 magnetization 
 augmentation part       26.5465154 magnetization 

 Broyden mixing:
  rms(total) = 0.14117E+01    rms(broyden)= 0.14108E+01
  rms(prec ) = 0.14969E+01
  weight for this iteration     100.00

 eigenvalues of (default mixing * dielectric matrix)
  average eigenvalue GAMMA=   0.9857
  0.9857

 Free energy of the ion-electron system (eV)
  ---------------------------------------------------
  alpha Z        PSCENC =       176.72120775
  Ewald energy   TEWEN  =     74706.88310488
  -Hartree energ DENC   =    -91663.85645332
  -exchange      EXHF   =         0.00000000
  -V(xc)+E(xc)   XCENC  =       396.47982940
  PAW double counting   =     19571.82299498   -18755.26654272
  entropy T*S    EENTRO =         0.00000000
  eigenvalues    EBANDS =     -3384.39867694
  atomic energy  EATOM  =     18498.60587364
  Solvation  Ediel_sol  =         0.00000000
  ---------------------------------------------------
  free energy    TOTEN  =      -453.00866234 eV

  energy without entropy =     -453.00866234  energy(sigma->0) =     -453.00866234


--------------------------------------------------------------------------------------------------------




--------------------------------------- Iteration      1(   7)  ---------------------------------------


    POTLOK:  cpu time      2.9160: real time      0.4169
    SETDIJ:  cpu time      0.2293: real time      0.0328
    EDDIAG:  cpu time      4.1032: real time      0.5888
  RMM-DIIS:  cpu time      4.0079: real time      1.6063
    ORTHCH:  cpu time      0.5974: real time      0.3044
 BZINTS: Fermi energy:   -0.207047;  316.000000 electrons
         Band energy:-0.326385E+04;  BLOECHL correction:   -0.050083
       DOS:  cpu time      0.0272: real time      0.0136
    CHARGE:  cpu time      0.4667: real time      0.1383
    MIXING:  cpu time      0.1211: real time      0.0173
    --------------------------------------------
      LOOP:  cpu time     12.4686: real time      3.1184

 eigenvalue-minimisations  :  3228
 total energy-change (2. order) :-0.5368850E+00  (-0.2355374E+01)
 number of electron     315.9999833 magnetization 
 augmentation part       25.9835378 magnetization 

 Broyden mixing:
  rms(total) = 0.93665E+00    rms(broyden)= 0.93650E+00
  rms(prec ) = 0.99228E+00
  weight for this iteration     100.00

 eigenvalues of (default mixing * dielectric matrix)
  average eigenvalue GAMMA=   1.6091
  1.1880  2.0302

 Free energy of the ion-electron system (eV)
  ---------------------------------------------------
  alpha Z        PSCENC =       176.72120775
  Ewald energy   TEWEN  =     74706.88310488
  -Hartree energ DENC   =    -91790.80036326
  -exchange      EXHF   =         0.00000000
  -V(xc)+E(xc)   XCENC  =       402.50336419
  PAW double counting   =     22303.42439322   -21487.03461517
  entropy T*S    EENTRO =         0.00000000
  eigenvalues    EBANDS =     -3263.84851260
  atomic energy  EATOM  =     18498.60587364
  Solvation  Ediel_sol  =         0.00000000
  ---------------------------------------------------
  free energy    TOTEN  =      -453.54554736 eV

  energy without entropy =     -453.54554736  energy(sigma->0) =     -453.54554736


--------------------------------------------------------------------------------------------------------




--------------------------------------- Iteration      1(   8)  ---------------------------------------


    POTLOK:  cpu time      2.9888: real time      0.4274
    SETDIJ:  cpu time      0.2312: real time      0.0331
    EDDIAG:  cpu time      4.1107: real time      0.5889
  RMM-DIIS:  cpu time      3.9349: real time      1.5672
    ORTHCH:  cpu time      0.5982: real time      0.3046
 BZINTS: Fermi energy:   -0.232991;  316.000000 electrons
         Band energy:-0.319248E+04;  BLOECHL correction:   -0.039506
       DOS:  cpu time      0.0272: real time      0.0136
    CHARGE:  cpu time      0.4616: real time      0.1361
    MIXING:  cpu time      0.1263: real time      0.0180
    --------------------------------------------
      LOOP:  cpu time     12.4789: real time      3.0889

 eigenvalue-minimisations  :  3212
 total energy-change (2. order) : 0.8027782E+00  (-0.3336758E+00)
 number of electron     315.9999833 magnetization 
 augmentation part       26.0246480 magnetization 

 Broyden mixing:
  rms(total) = 0.17485E+00    rms(broyden)= 0.17483E+00
  rms(prec ) = 0.25206E+00
  weight for this iteration     100.00

 eigenvalues of (default mixing * dielectric matrix)
  average eigenvalue GAMMA=   1.4421
  2.3551  1.1275  0.8437

 Free energy of the ion-electron system (eV)
  ---------------------------------------------------
  alpha Z        PSCENC =       176.72120775
  Ewald energy   TEWEN  =     74706.88310488
  -Hartree energ DENC   =    -91863.51602248
  -exchange      EXHF   =         0.00000000
  -V(xc)+E(xc)   XCENC  =       403.46202311
  PAW double counting   =     25892.14479992   -25074.55930219
  entropy T*S    EENTRO =         0.00000000
  eigenvalues    EBANDS =     -3192.48445374
  atomic energy  EATOM  =     18498.60587364
  Solvation  Ediel_sol  =         0.00000000
  ---------------------------------------------------
  free energy    TOTEN  =      -452.74276911 eV

  energy without entropy =     -452.74276911  energy(sigma->0) =     -452.74276911


--------------------------------------------------------------------------------------------------------




--------------------------------------- Iteration      1(   9)  ---------------------------------------


    POTLOK:  cpu time      2.9654: real time      0.4270
    SETDIJ:  cpu time      0.2317: real time      0.0342
    EDDIAG:  cpu time      4.1003: real time      0.5882
  RMM-DIIS:  cpu time      4.3159: real time      1.7649
    ORTHCH:  cpu time      0.5930: real time      0.3022
 BZINTS: Fermi energy:   -0.219786;  316.000000 electrons
         Band energy:-0.314970E+04;  BLOECHL correction:   -0.050384
       DOS:  cpu time      0.0268: real time      0.0134
    CHARGE:  cpu time      0.4569: real time      0.1354
    MIXING:  cpu time      0.1226: real time      0.0175
    --------------------------------------------
      LOOP:  cpu time     12.8127: real time      3.2828

 eigenvalue-minimisations  :  3595
 total energy-change (2. order) : 0.6759933E-01  (-0.1114873E+00)
 number of electron     315.9999833 magnetization 
 augmentation part       25.9563431 magnetization 

 Broyden mixing:
  rms(total) = 0.10822E+00    rms(broyden)= 0.10819E+00
  rms(prec ) = 0.18133E+00
  weight for this iteration     100.00

 eigenvalues of (default mixing * dielectric matrix)
  average eigenvalue GAMMA=   1.4936
  1.9783  1.9783  1.1037  0.9138

 Free energy of the ion-electron system (eV)
  ---------------------------------------------------
  alpha Z        PSCENC =       176.72120775
  Ewald energy   TEWEN  =     74706.88310488
  -Hartree energ DENC   =    -91907.26713162
  -exchange      EXHF   =         0.00000000
  -V(xc)+E(xc)   XCENC  =       404.57168414
  PAW double counting   =     26367.16512904   -25549.65247246
  entropy T*S    EENTRO =         0.00000000
  eigenvalues    EBANDS =     -3149.70256516
  atomic energy  EATOM  =     18498.60587364
  Solvation  Ediel_sol  =         0.00000000
  ---------------------------------------------------
  free energy    TOTEN  =      -452.67516978 eV

  energy without entropy =     -452.67516978  energy(sigma->0) =     -452.67516978


--------------------------------------------------------------------------------------------------------




--------------------------------------- Iteration      1(  10)  ---------------------------------------


    POTLOK:  cpu time      2.9064: real time      0.4162
    SETDIJ:  cpu time      0.2313: real time      0.0331
    EDDIAG:  cpu time      4.0554: real time      0.5814
  RMM-DIIS:  cpu time      4.4995: real time      1.8529
    ORTHCH:  cpu time      0.6096: real time      0.3066
 BZINTS: Fermi energy:   -0.143717;  316.000000 electrons
         Band energy:-0.310140E+04;  BLOECHL correction:   -0.039308
       DOS:  cpu time      0.0264: real time      0.0132
    CHARGE:  cpu time      0.5485: real time      0.1483
    MIXING:  cpu time      0.1339: real time      0.0191
    --------------------------------------------
      LOOP:  cpu time     13.0111: real time      3.3708

 eigenvalue-minimisations  :  3691
 total energy-change (2. order) : 0.1074895E+00  (-0.3691726E-01)
 number of electron     315.9999834 magnetization 
 augmentation part       25.8573860 magnetization 

 Broyden mixing:
  rms(total) = 0.83635E-01    rms(broyden)= 0.83610E-01
  rms(prec ) = 0.15050E+00
  weight for this iteration     100.00

 eigenvalues of (default mixing * dielectric matrix)
  average eigenvalue GAMMA=   1.5011
  2.3886  2.3886  0.9676  0.9676  0.7931

 Free energy of the ion-electron system (eV)
  ---------------------------------------------------
  alpha Z        PSCENC =       176.72120775
  Ewald energy   TEWEN  =     74706.88310488
  -Hartree energ DENC   =    -91956.04809916
  -exchange      EXHF   =         0.00000000
  -V(xc)+E(xc)   XCENC  =       405.31400063
  PAW double counting   =     25934.70066505   -25117.34594489
  entropy T*S    EENTRO =         0.00000000
  eigenvalues    EBANDS =     -3101.39848819
  atomic energy  EATOM  =     18498.60587364
  Solvation  Ediel_sol  =         0.00000000
  ---------------------------------------------------
  free energy    TOTEN  =      -452.56768029 eV

  energy without entropy =     -452.56768029  energy(sigma->0) =     -452.56768029


--------------------------------------------------------------------------------------------------------




--------------------------------------- Iteration      1(  11)  ---------------------------------------


    POTLOK:  cpu time      2.9541: real time      0.4227
    SETDIJ:  cpu time      0.2317: real time      0.0332
    EDDIAG:  cpu time      4.0970: real time      0.5885
  RMM-DIIS:  cpu time      4.9161: real time      2.0478
    ORTHCH:  cpu time      0.6058: real time      0.3082
 BZINTS: Fermi energy:   -0.081212;  316.000000 electrons
         Band energy:-0.306702E+04;  BLOECHL correction:   -0.050132
       DOS:  cpu time      0.0269: real time      0.0134
    CHARGE:  cpu time      0.4837: real time      0.1395
    MIXING:  cpu time      0.1215: real time      0.0174
    --------------------------------------------
      LOOP:  cpu time     13.4367: real time      3.5707

 eigenvalue-minimisations  :  3987
 total energy-change (2. order) : 0.8620178E-01  (-0.9233525E-02)
 number of electron     315.9999834 magnetization 
 augmentation part       25.8598868 magnetization 

 Broyden mixing:
  rms(total) = 0.55342E-01    rms(broyden)= 0.55337E-01
  rms(prec ) = 0.12010E+00
  weight for this iteration     100.00

 eigenvalues of (default mixing * dielectric matrix)
  average eigenvalue GAMMA=   1.4951
  2.3745  2.3745  1.3093  1.3093  0.9219  0.6810

 Free energy of the ion-electron system (eV)
  ---------------------------------------------------
  alpha Z        PSCENC =       176.72120775
  Ewald energy   TEWEN  =     74706.88310488
  -Hartree energ DENC   =    -91990.48396750
  -exchange      EXHF   =         0.00000000
  -V(xc)+E(xc)   XCENC  =       405.32877925
  PAW double counting   =     25701.40442866   -24883.92498723
  entropy T*S    EENTRO =         0.00000000
  eigenvalues    EBANDS =     -3067.01591795
  atomic energy  EATOM  =     18498.60587364
  Solvation  Ediel_sol  =         0.00000000
  ---------------------------------------------------
  free energy    TOTEN  =      -452.48147850 eV

  energy without entropy =     -452.48147850  energy(sigma->0) =     -452.48147850


--------------------------------------------------------------------------------------------------------




--------------------------------------- Iteration      1(  12)  ---------------------------------------


    POTLOK:  cpu time      2.9991: real time      0.4287
    SETDIJ:  cpu time      0.2315: real time      0.0331
    EDDIAG:  cpu time      4.0978: real time      0.5878
  RMM-DIIS:  cpu time      4.4571: real time      1.8345
    ORTHCH:  cpu time      0.6041: real time      0.3074
 BZINTS: Fermi energy:   -0.014421;  316.000000 electrons
         Band energy:-0.304153E+04;  BLOECHL correction:   -0.049895
       DOS:  cpu time      0.0269: real time      0.0134
    CHARGE:  cpu time      0.4657: real time      0.1368
    MIXING:  cpu time      0.1362: real time      0.0195
    --------------------------------------------
      LOOP:  cpu time     13.0184: real time      3.3613

 eigenvalue-minimisations  :  3608
 total energy-change (2. order) : 0.6576906E-01  (-0.8221792E-02)
 number of electron     315.9999834 magnetization 
 augmentation part       25.8885267 magnetization 

 Broyden mixing:
  rms(total) = 0.35690E-01    rms(broyden)= 0.35677E-01
  rms(prec ) = 0.10060E+00
  weight for this iteration     100.00

 eigenvalues of (default mixing * dielectric matrix)
  average eigenvalue GAMMA=   1.5043
  3.2470  2.5758  1.1739  1.0486  1.0486  0.8700  0.5658

 Free energy of the ion-electron system (eV)
  ---------------------------------------------------
  alpha Z        PSCENC =       176.72120775
  Ewald energy   TEWEN  =     74706.88310488
  -Hartree energ DENC   =    -92015.89310555
  -exchange      EXHF   =         0.00000000
  -V(xc)+E(xc)   XCENC  =       405.15968773
  PAW double counting   =     25688.86322065   -24871.22564363
  entropy T*S    EENTRO =         0.00000000
  eigenvalues    EBANDS =     -3041.53005492
  atomic energy  EATOM  =     18498.60587364
  Solvation  Ediel_sol  =         0.00000000
  ---------------------------------------------------
  free energy    TOTEN  =      -452.41570944 eV

  energy without entropy =     -452.41570944  energy(sigma->0) =     -452.41570944


--------------------------------------------------------------------------------------------------------




--------------------------------------- Iteration      1(  13)  ---------------------------------------


    POTLOK:  cpu time      2.9469: real time      0.4213
    SETDIJ:  cpu time      0.2295: real time      0.0328
    EDDIAG:  cpu time      4.0975: real time      0.5879
  RMM-DIIS:  cpu time      4.8252: real time      2.0214
    ORTHCH:  cpu time      0.6050: real time      0.3075
 BZINTS: Fermi energy:    0.087956;  316.000000 electrons
         Band energy:-0.299890E+04;  BLOECHL correction:   -0.050102
       DOS:  cpu time      0.0273: real time      0.0137
    CHARGE:  cpu time      0.4651: real time      0.1366
    MIXING:  cpu time      0.1384: real time      0.0198
    --------------------------------------------
      LOOP:  cpu time     13.3349: real time      3.5410

 eigenvalue-minimisations  :  3976
 total energy-change (2. order) : 0.7187727E-01  (-0.4116466E-02)
 number of electron     315.9999834 magnetization 
 augmentation part       25.8699083 magnetization 

 Broyden mixing:
  rms(total) = 0.32440E-01    rms(broyden)= 0.32435E-01
  rms(prec ) = 0.85353E-01
  weight for this iteration     100.00

 eigenvalues of (default mixing * dielectric matrix)
  average eigenvalue GAMMA=   1.5174
  3.5290  2.4782  1.2790  1.2790  1.0700  1.0700  0.8819  0.5520

 Free energy of the ion-electron system (eV)
  ---------------------------------------------------
  alpha Z        PSCENC =       176.72120775
  Ewald energy   TEWEN  =     74706.88310488
  -Hartree energ DENC   =    -92058.74164065
  -exchange      EXHF   =         0.00000000
  -V(xc)+E(xc)   XCENC  =       405.43289611
  PAW double counting   =     25498.61503525   -24680.95535000
  entropy T*S    EENTRO =         0.00000000
  eigenvalues    EBANDS =     -2998.90495914
  atomic energy  EATOM  =     18498.60587364
  Solvation  Ediel_sol  =         0.00000000
[...]
  299                m_alltoallv_z                         0.014675                    5   7
  300                map_scatter                           0.006261                    5   7
  301              map_backward                          0.052141                     12   6
  302                map_gather                            0.007453                    6   7
  303                m_alltoallv_z                         0.021367                    6   7
  304                map_scatter                           0.023283                    6   7
  305        ggaall_grid                           0.054826                            1   3
  306        m_sumb_d                              0.000131                            5   3
  307        forhar                                0.150743                            2   3
  308          m_sumb_d                              0.001012                          2   4
  309        strehar                               0.004386                            1   3
  310          m_sumb_d                              0.000030                          1   4
  311        chggra                                0.139033                            1   3
  312          fft3d_mpi                             0.134587                          3   4
  313            fftbrc_mpi                            0.133074                        3   5
  314              fftbas_plan_mpi                       0.133072                      3   6
  315                map_forward                           0.037522                    4   7
  316                  map_gather                            0.000014                  2   8
  317                  m_alltoallv_z                         0.037477                  2   8
  318                  map_scatter                           0.000010                  2   8
  319                map_backward                          0.000033                    2   7
  320                  map_gather                            0.000005                  1   8
  321                  m_alltoallv_z                         0.000017                  1   8
  322                  map_scatter                           0.000004                  1   8
  323          m_sumb_d                              0.000022                          2   4
  324          pothar                                0.000495                          1   4
  325            m_sumb_d                              0.000060                        1   5
  326        brmix                                 0.034509                            1   3
  327          m_sumb_d                              0.000156                          6   4
  328          brpre                                 0.000294                          1   4
  329          setg0                                 0.007700                          1   4
  330          broyd                                 0.023337                          1   4
  331            m_sumb_d                              0.002809                       40   5
  332            brget                                 0.002572                      174   5
  333            brsav                                 0.001148                       38   5
  334        m_bcast_d                             0.000051                            2   3
  335      potlok                                0.407615                              1   2
  336        fft3d_mpi                             0.163836                           13   3
  337          fftbrc_mpi                            0.138604                         13   4
  338            fftbas_plan_mpi                       0.138590                       13   5
  339              dfftw_execute                         0.043003                     39   6
  340              map_forward                           0.040262                     14   6
  341                map_gather                            0.011400                    8   7
  342                m_alltoallv_z                         0.021162                    8   7
  343                map_scatter                           0.007656                    8   7
  344              map_backward                          0.054052                     12   6
  345                map_gather                            0.007050                    6   7
  346                m_alltoallv_z                         0.018019                    6   7
  347                map_scatter                           0.028935                    6   7
  348        ggaall_grid                           0.048611                            1   3
  349        m_sumb_d                              0.000142                            5   3
  350        pothar                                0.009209                            1   3
  351          m_sumb_d                              0.000016                          1   4
  352        m_bcast_d                             0.002428                            1   3
  353      potlok_metagga                        0.000000                              1   2
  354      set_dd_magatom                        0.000005                              1   2
  355      set_dd_paw                            0.020938                              1   2
  356        m_sumb_d                              0.001692                            7   3
  357      m_bcast_d                             0.000025                              2   2
  358      fftwav_mpi                            4.587483                           1008   2
  359        fftwav                                4.581814                         1008   3
  360          fft3d                                 3.197090                       1008   4
  361      densta                                0.013685                              1   2
 
 Flat profile
 ============
 
             routine name                   CPU           calls
 ---------------------------------------------------------------
 i2                                     17.331196        7740
 eddiag                                 17.159238          33
 eddav                                  16.294456           5
 m_sumb_d                               11.770385       12513
 total_time                             11.648048           1
 hamiltmu                                8.916744       10629
 i3                                      7.560469        7740
 potlok                                  6.436196          35
 rpromu_acc                              6.176975       10881
 fft3d                                   5.648551      122978
 newband                                 5.090594       10895
 phaser                                  4.179070         357
 orthch                                  3.991776          34
 orth1                                   3.635618        9136
 lapack                                  2.885812        2889
 m_alltoall_d                            2.337573      165774
 m_alltoallv_z                           2.187052         627
 raccmu_                                 2.176032       10629
 choleski                                2.136487         238
 racc0mu_acc                             2.073640       10629
 fftwav                                  1.994477       76510
 cnorma                                  1.861442      121830
 ggaall_grid                             1.840564          36
 dfftw_execute                           1.728769        1635
 w1_gemv                                 1.526226      198908
 fft3d_mpi                               1.240180       47016
 eccp                                    1.149883       53378
 w1_copy                                 1.010195      106140
 map_scatter                             0.966642         627
 m_bcast_z                               0.897559        4233
 map_gather                              0.862061         627
 w1_dscal                                0.834582       85104
 overl_mu                                0.809388       10629
 setdij_                                 0.712695          62
 set_dd_paw                              0.688190          36
 init_hip                                0.673842           1
 lincom                                  0.647459         504
 w1_gaxpy                                0.625468       71691
 augmentation_charge                     0.575207          34
 w1_dot                                  0.535049       11048
 densta                                  0.529123          39
 w1_daxpy                                0.466003       59124
 redis_proj                              0.420771       21229
 redis_pw                                0.401603       16893
 rspher_all                              0.389769          14
 overl1                                  0.370890       49727
 pothar                                  0.321581          36
 apply_precond                           0.306588       86837
 setg0                                   0.284239          35
 elmin                                   0.260372           1
 broyd                                   0.224212          34
 eddrmm                                  0.218782          33
 brmix                                   0.206536          34
 kinhamil                                0.196006       46468
 vhamil                                  0.191398       46468
 fftext_mpi                              0.189283       46468
 ggemm                                   0.182625        3729
 zhegv                                   0.177428       18514
 fftbas_plan_mpi                         0.155113         548
 eccp_nl                                 0.153780       81220
 force_and_stress                        0.150144           1
 forhar                                  0.149731           2
 soft_charge                             0.121916          34
 depsum                                  0.120168          34
 fftwav_mpi                              0.118390       76510
 m_bcast_d                               0.112520        5817
 overl                                   0.102670       10345
 setup_precond                           0.094281       12768
 forloc                                  0.075638           1
 set_charge                              0.064281          34
 stufak                                  0.059288           1
 proall                                  0.046079           1
 brget                                   0.044466        3105
 rpro_isp                                0.042348          91
 brgrid                                  0.034627           1
 pw_charge                               0.030969        9520
 brsav                                   0.021012         737
 hip_hipfft_makeplan                     0.016986           6
 strnlr                                  0.016621           1
 i1                                      0.015673        7740
 strkin                                  0.013963           1
 fft_gq                                  0.013815          34
 inisym                                  0.011673           1
 hamilt_local                            0.010379       11088
 brpre                                   0.009987          34
 w1_projall                              0.009875        9789
 truncate_high_frequency_w1              0.006792       48148
 strelo                                  0.006186           1
 fornlr                                  0.005399           1
 strehar                                 0.004356           1
 chggra                                  0.003929           1
 rsp                                     0.003912           1
 map_backward                            0.002342         576
 map_forward                             0.001797         520
 fewald                                  0.001489           1
 fftbrc_mpi                              0.000643         548
 rcp                                     0.000344           1
 vectorpot                               0.000191          35
 hip_init_hipblas                        0.000189           1
 set_dd_magatom                          0.000173          36
 shift_bands_between_low_high            0.000150         231
 hip_init_rocsolver                      0.000071           1
 crpa_reader                             0.000066           1
 fordep                                  0.000046           1
 potlok_metagga                          0.000032          35
 posmap                                  0.000016           2
 rotate_active_occupied_orbital          0.000005           1
 hip_hipfft_makeplans                    0.000003           3
 redis_pw_over_bands                     0.000001           1
 ---------------------------------------------------------------
  summed up times    168.007524013519     
 
 Accumulative profile
 ====================
 
             routine name                   CPU           calls
 ---------------------------------------------------------------
 total_time                            168.007524           1
 elmin                                 140.128616           1
 eddrmm                                 60.215378          33
 eddav                                  28.845825           5
 i2                                     22.161464        7740
 eddiag                                 19.503895          33
 hamiltmu                               15.047420       10629
 potlok                                 14.618570          35
 orthch                                 14.186066          34
 m_sumb_d                               11.770385       12513
 i3                                     11.710393        7740
 fft3d_mpi                               7.925406       47016
 fftwav_mpi                              6.980611       76510
 fftwav                                  6.862221       76510
 rpromu_acc                              6.176975       10881
 newband                                 6.025704       10895
 fftbrc_mpi                              5.904419         548
 fftbas_plan_mpi                         5.903777         548
 fft3d                                   5.648551      122978
 raccmu_                                 5.059060       10629
 w1_projall                              4.709417        9789
 set_charge                              4.661645          34
 phaser                                  4.179070         357
 force_and_stress                        4.103946           1
 orth1                                   3.635618        9136
 soft_charge                             3.441857          34
 lapack                                  2.885812        2889
 m_alltoall_d                            2.337573      165774
 map_backward                            2.208406         576
 m_alltoallv_z                           2.187052         627
 strnlr                                  2.154189           1
 choleski                                2.136487         238
 racc0mu_acc                             2.073640       10629
 rpro_isp                                2.020133          91
 cnorma                                  2.015222      121830
 w1_gemv                                 1.897115      198908
 ggaall_grid                             1.840564          36
 map_forward                             1.811487         520
 dfftw_execute                           1.728769        1635
 redis_proj                              1.680175       21229
 redis_pw                                1.479772       16893
 kinhamil                                1.192786       46468
 eccp                                    1.149883       53378
 augmentation_charge                     1.018533          34
 w1_copy                                 1.010195      106140
 fftext_mpi                              0.996780       46468
 map_scatter                             0.966642         627
 m_bcast_z                               0.897559        4233
 map_gather                              0.862061         627
 brmix                                   0.852615          34
 w1_dscal                                0.834582       85104
 overl_mu                                0.809388       10629
 set_dd_paw                              0.755126          36
 setdij_                                 0.751937          62
 fornlr                                  0.716678           1
 init_hip                                0.673842           1
 lincom                                  0.647459         504
 proall                                  0.642867           1
 w1_gaxpy                                0.625468       71691
 w1_dot                                  0.535049       11048
 densta                                  0.529123          39
 w1_daxpy                                0.466003       59124
 pothar                                  0.398183          36
 rspher_all                              0.389769          14
 overl1                                  0.370890       49727
 fft_gq                                  0.356932          34
 broyd                                   0.338759          34
 hamilt_local                            0.322948       11088
 apply_precond                           0.306588       86837
 setg0                                   0.284239          35
 i1                                      0.238366        7740
 vhamil                                  0.191398       46468
 ggemm                                   0.182625        3729
 zhegv                                   0.177428       18514
 eccp_nl                                 0.153780       81220
 forhar                                  0.150743           2
 chggra                                  0.139033           1
 depsum                                  0.136974          34
 m_bcast_d                               0.112520        5817
 overl                                   0.102670       10345
 setup_precond                           0.094281       12768
 forloc                                  0.077610           1
 fordep                                  0.070205           1
 stufak                                  0.059288           1
 brget                                   0.044466        3105
 brgrid                                  0.034627           1
 pw_charge                               0.030969        9520
 brsav                                   0.021012         737
 hip_hipfft_makeplans                    0.016989           3
 hip_hipfft_makeplan                     0.016986           6
 strkin                                  0.014000           1
 inisym                                  0.011689           1
 brpre                                   0.009987          34
 truncate_high_frequency_w1              0.006792       48148
 strelo                                  0.006253           1
 fewald                                  0.005855           1
 strehar                                 0.004386           1
 rsp                                     0.003912           1
 rcp                                     0.000344           1
 vectorpot                               0.000191          35
 hip_init_hipblas                        0.000189           1
 set_dd_magatom                          0.000173          36
 shift_bands_between_low_high            0.000150         231
 hip_init_rocsolver                      0.000071           1
 crpa_reader                             0.000066           1
 potlok_metagga                          0.000032          35
 posmap                                  0.000016           2
 rotate_active_occupied_orbital          0.000005           1
 redis_pw_over_bands                     0.000001           1
 ---------------------------------------------------------------
 
Profiling took   0.393147  0.199986  0.002911  0.002796 seconds
Profiling took   0.261342 seconds
