<?xml version="1.0" encoding="ISO-8859-1"?>
<modeling>
 <generator>
  <i name="program" type="string">vasp </i>
  <i name="version" type="string">6.3.2  </i>
  <i name="subversion" type="string">27Jun22 (build Mar 15 2023 15:45:48) complex                          parallel </i>
  <i name="platform" type="string">LinuxIFC </i>
  <i name="date" type="string">2024 07 24 </i>
  <i name="time" type="string">10:38:03 </i>
 </generator>
 <incar>
  <i type="string" name="SYSTEM">ni3al</i>
  <i type="int" name="ISTART">     0</i>
  <i type="string" name="PREC">Accurate</i>
  <i type="string" name="ALGO">Fast</i>
  <i name="AMIN">      0.01000000</i>
  <i type="int" name="ICHARG">     2</i>
  <i type="int" name="NELM">   150</i>
  <i type="int" name="IBRION">    -1</i>
  <i name="EDIFF">      0.00000100</i>
  <i name="EDIFFG">     -0.01000000</i>
  <i type="int" name="NSW">     0</i>
  <i type="int" name="ISIF">     2</i>
  <i name="ENCUT">    530.00000000</i>
  <i type="string" name="LREAL">Auto</i>
  <i type="int" name="ISMEAR">    -5</i>
  <i name="SIGMA">      0.10000000</i>
  <i type="int" name="LMAXMIX">     4</i>
  <i type="logical" name="LWAVE"> T  </i>
  <i type="logical" name="LCHARG"> F  </i>
  <i type="logical" name="LELF"> T  </i>
 </incar>
 <primitive_cell>
  <structure name="primitive_cell" >
   <crystal>
    <varray name="basis" >
     <v>       9.61490200       0.00000000       0.00000000 </v>
     <v>       0.00000000       8.32674900       0.00000000 </v>
     <v>       0.00000000       0.00000000      21.56058700 </v>
    </varray>
    <i name="volume">   1726.15947396 </i>
    <varray name="rec_basis" >
     <v>       0.10400522       0.00000000       0.00000000 </v>
     <v>       0.00000000       0.12009489       0.00000000 </v>
     <v>       0.00000000       0.00000000       0.04638093 </v>
    </varray>
   </crystal>
   <varray name="positions" >
    <v>       0.17345600       0.98642000       0.06215200 </v>
    <v>       0.42345600       0.48642000       0.06215200 </v>
    <v>       0.09691300       0.50000000       0.16358100 </v>
    <v>       0.34691300       0.00000000       0.16358100 </v>
    <v>       0.15308800       0.33333300       0.06215200 </v>
    <v>       0.40308800       0.83333300       0.06215200 </v>
    <v>       0.17345600       0.68024500       0.06215200 </v>
    <v>       0.42345600       0.18024600       0.06215200 </v>
    <v>       0.07654400       0.15308700       0.16358100 </v>
    <v>       0.32654400       0.65308700       0.16358100 </v>
    <v>       0.07654400       0.84691200       0.16358100 </v>
    <v>       0.32654400       0.34691200       0.16358100 </v>
    <v>       0.17345600       0.31975500       0.26500900 </v>
    <v>       0.42345600       0.81975500       0.26500900 </v>
    <v>       0.15308700       0.66666700       0.26500900 </v>
    <v>       0.40308800       0.16666700       0.26500900 </v>
    <v>       0.17345600       0.01358000       0.26500900 </v>
    <v>       0.42345600       0.51357900       0.26500900 </v>
    <v>       0.67345600       0.98642000       0.06215200 </v>
    <v>       0.92345600       0.48642000       0.06215200 </v>
    <v>       0.59691300       0.50000000       0.16358100 </v>
    <v>       0.84691300       0.00000000       0.16358100 </v>
    <v>       0.65308800       0.33333300       0.06215200 </v>
    <v>       0.90308800       0.83333300       0.06215200 </v>
    <v>       0.67345600       0.68024500       0.06215200 </v>
    <v>       0.92345600       0.18024500       0.06215200 </v>
    <v>       0.57654400       0.15308700       0.16358100 </v>
    <v>       0.82654400       0.65308700       0.16358100 </v>
    <v>       0.57654400       0.84691200       0.16358100 </v>
    <v>       0.82654400       0.34691200       0.16358100 </v>
    <v>       0.67345600       0.31975500       0.26500900 </v>
    <v>       0.92345600       0.81975500       0.26500900 </v>
    <v>       0.65308700       0.66666700       0.26500900 </v>
    <v>       0.90308800       0.16666700       0.26500900 </v>
    <v>       0.67345600       0.01357900       0.26500900 </v>
    <v>       0.92345600       0.51358000       0.26500900 </v>
    <v>       0.48460318       0.32513132       0.37140312 </v>
    <v>       0.00000000       0.66666700       0.20285800 </v>
    <v>       0.25000000       0.16666700       0.20285800 </v>
    <v>       0.00000000       0.33333300       0.12430300 </v>
    <v>       0.25000000       0.83333300       0.12430300 </v>
    <v>       0.00000000       0.00000000       0.10142900 </v>
    <v>       0.25000000       0.50000000       0.10142900 </v>
    <v>       0.00000000       0.66666700       0.02287500 </v>
    <v>       0.25000000       0.16666700       0.02287500 </v>
    <v>       0.99811674       0.33412541       0.27112062 </v>
    <v>       0.25082607       0.83128589       0.26996375 </v>
    <v>       0.00000000       0.00000000       0.22573200 </v>
    <v>       0.25000000       0.50000000       0.22573200 </v>
    <v>       0.00000000       0.33333300       0.00000000 </v>
    <v>       0.25000000       0.83333300       0.00000000 </v>
    <v>       0.50000000       0.66666700       0.20285800 </v>
    <v>       0.75000000       0.16666700       0.20285800 </v>
    <v>       0.50000000       0.33333300       0.12430300 </v>
    <v>       0.75000000       0.83333300       0.12430300 </v>
    <v>       0.50000000       0.00000000       0.10142900 </v>
    <v>       0.75000000       0.50000000       0.10142900 </v>
    <v>       0.50000000       0.66666700       0.02287500 </v>
    <v>       0.75000000       0.16666700       0.02287500 </v>
    <v>       0.50298789       0.33614908       0.29123695 </v>
    <v>       0.74937339       0.83319508       0.27534822 </v>
    <v>       0.50000000       0.00000000       0.22573200 </v>
    <v>       0.75000000       0.50000000       0.22573200 </v>
    <v>       0.50000000       0.33333300       0.00000000 </v>
    <v>       0.75000000       0.83333300       0.00000000 </v>
    <v>       0.26523728       0.16890335       0.37221838 </v>
   </varray>
  </structure>
  <varray name="primitive_index" >
   <v type="int" >        1 </v>
   <v type="int" >        2 </v>
   <v type="int" >        3 </v>
   <v type="int" >        4 </v>
   <v type="int" >        5 </v>
   <v type="int" >        6 </v>
   <v type="int" >        7 </v>
   <v type="int" >        8 </v>
   <v type="int" >        9 </v>
   <v type="int" >       10 </v>
   <v type="int" >       11 </v>
   <v type="int" >       12 </v>
   <v type="int" >       13 </v>
   <v type="int" >       14 </v>
   <v type="int" >       15 </v>
   <v type="int" >       16 </v>
   <v type="int" >       17 </v>
   <v type="int" >       18 </v>
   <v type="int" >       19 </v>
   <v type="int" >       20 </v>
   <v type="int" >       21 </v>
   <v type="int" >       22 </v>
   <v type="int" >       23 </v>
   <v type="int" >       24 </v>
   <v type="int" >       25 </v>
   <v type="int" >       26 </v>
   <v type="int" >       27 </v>
   <v type="int" >       28 </v>
   <v type="int" >       29 </v>
   <v type="int" >       30 </v>
   <v type="int" >       31 </v>
   <v type="int" >       32 </v>
   <v type="int" >       33 </v>
   <v type="int" >       34 </v>
   <v type="int" >       35 </v>
   <v type="int" >       36 </v>
   <v type="int" >       37 </v>
   <v type="int" >       38 </v>
   <v type="int" >       39 </v>
   <v type="int" >       40 </v>
   <v type="int" >       41 </v>
   <v type="int" >       42 </v>
   <v type="int" >       43 </v>
   <v type="int" >       44 </v>
   <v type="int" >       45 </v>
   <v type="int" >       46 </v>
   <v type="int" >       47 </v>
   <v type="int" >       48 </v>
   <v type="int" >       49 </v>
   <v type="int" >       50 </v>
   <v type="int" >       51 </v>
   <v type="int" >       52 </v>
   <v type="int" >       53 </v>
   <v type="int" >       54 </v>
   <v type="int" >       55 </v>
   <v type="int" >       56 </v>
   <v type="int" >       57 </v>
   <v type="int" >       58 </v>
   <v type="int" >       59 </v>
   <v type="int" >       60 </v>
   <v type="int" >       61 </v>
   <v type="int" >       62 </v>
   <v type="int" >       63 </v>
   <v type="int" >       64 </v>
   <v type="int" >       65 </v>
   <v type="int" >       66 </v>
  </varray>
 </primitive_cell>
 <kpoints>
  <generation param="Gamma">
   <v type="int" name="divisions">       3        4        1 </v>
   <v name="usershift">      0.00000000       0.00000000       0.00000000 </v>
   <v name="genvec1">      0.33333333       0.00000000       0.00000000 </v>
   <v name="genvec2">      0.00000000       0.25000000       0.00000000 </v>
   <v name="genvec3">      0.00000000       0.00000000       1.00000000 </v>
   <v name="shift">      0.00000000       0.00000000       0.00000000 </v>
  </generation>
  <varray name="kpointlist" >
   <v>       0.00000000       0.00000000       0.00000000 </v>
   <v>       0.33333333       0.00000000       0.00000000 </v>
   <v>       0.00000000       0.25000000       0.00000000 </v>
   <v>       0.33333333       0.25000000       0.00000000 </v>
   <v>      -0.33333333       0.25000000       0.00000000 </v>
   <v>       0.00000000       0.50000000       0.00000000 </v>
   <v>       0.33333333       0.50000000       0.00000000 </v>
  </varray>
  <varray name="weights" >
   <v>       0.08333333 </v>
   <v>       0.16666667 </v>
   <v>       0.16666667 </v>
   <v>       0.16666667 </v>
   <v>       0.16666667 </v>
   <v>       0.08333333 </v>
   <v>       0.16666667 </v>
  </varray>
  <varray name="tetrahedronlist"  type="int" >
   <v type="int" >        2        2        4        5        5 </v>
   <v type="int" >        2        2        2        5        5 </v>
   <v type="int" >        4        2        2        2        5 </v>
   <v type="int" >        2        2        4        4        5 </v>
   <v type="int" >        2        2        2        4        5 </v>
   <v type="int" >        2        3        6        7        7 </v>
   <v type="int" >        2        3        4        7        7 </v>
   <v type="int" >        2        3        4        4        7 </v>
   <v type="int" >        2        3        6        6        7 </v>
   <v type="int" >        2        3        3        6        7 </v>
   <v type="int" >        2        3        3        4        7 </v>
   <v type="int" >        2        1        3        4        4 </v>
   <v type="int" >        2        1        2        4        4 </v>
   <v type="int" >        2        1        2        2        4 </v>
   <v type="int" >        2        1        3        3        4 </v>
   <v type="int" >        2        1        1        3        4 </v>
   <v type="int" >        2        1        1        2        4 </v>
   <v type="int" >        2        5        6        6        7 </v>
   <v type="int" >        2        3        5        6        6 </v>
   <v type="int" >        2        3        3        5        6 </v>
   <v type="int" >        2        5        6        7        7 </v>
   <v type="int" >        2        5        5        6        7 </v>
   <v type="int" >        2        3        5        5        6 </v>
   <v type="int" >        2        4        4        5        7 </v>
   <v type="int" >        2        4        4        7        7 </v>
   <v type="int" >        4        4        7        7        7 </v>
   <v type="int" >        2        4        5        5        7 </v>
   <v type="int" >        2        4        5        7        7 </v>
   <v type="int" >        2        1        2        2        3 </v>
   <v type="int" >        2        2        2        3        5 </v>
   <v type="int" >        2        2        3        5        5 </v>
   <v type="int" >        2        1        1        2        3 </v>
   <v type="int" >        2        1        2        3        3 </v>
   <v type="int" >        2        2        3        3        5 </v>
  </varray>
  <i name="volumeweight">      0.01388889 </i>
 </kpoints>
 <parameters>
  <separator name="general" >
   <i type="string" name="SYSTEM">ni3al</i>
   <i type="logical" name="LCOMPAT"> F  </i>
  </separator>
  <separator name="electronic" >
   <i type="string" name="PREC">accura</i>
   <i name="ENMAX">    530.00000000</i>
   <i name="ENAUG">    613.61400000</i>
   <i name="EDIFF">      0.00000100</i>
   <i type="int" name="IALGO">    68</i>
   <i type="int" name="IWAVPR">    10</i>
   <i type="int" name="NBANDS">   192</i>
   <i type="int" name="NBANDSLOW">    -1</i>
   <i type="int" name="NBANDSHIGH">    -1</i>
   <i name="NELECT">    316.00000000</i>
   <i type="int" name="TURBO">     0</i>
   <i type="int" name="IRESTART">     0</i>
   <i type="int" name="NREBOOT">     0</i>
   <i type="int" name="NMIN">     0</i>
   <i name="EREF">      0.00000000</i>
   <separator name="electronic smearing" >
    <i type="int" name="ISMEAR">    -5</i>
    <i name="SIGMA">      0.10000000</i>
    <i name="KSPACING">      0.50000000</i>
    <i type="logical" name="KGAMMA"> T  </i>
    <i type="logical" name="KBLOWUP"> T  </i>
   </separator>
   <separator name="electronic projectors" >
    <i type="logical" name="LREAL"> T  </i>
    <v name="ROPT">     -0.00025000     -0.00025000     -0.00025000     -0.00025000</v>
    <i type="int" name="LMAXPAW">  -100</i>
    <i type="int" name="LMAXMIX">     4</i>
    <i type="logical" name="NLSPLINE"> F  </i>
   </separator>
   <separator name="electronic startup" >
    <i type="int" name="ISTART">     0</i>
    <i type="int" name="ICHARG">     2</i>
    <i type="int" name="INIWAV">     1</i>
   </separator>
   <separator name="electronic spin" >
    <i type="int" name="ISPIN">     1</i>
    <i type="logical" name="LNONCOLLINEAR"> F  </i>
    <v name="MAGMOM">      1.00000000      1.00000000      1.00000000      1.00000000      1.00000000      1.00000000      1.00000000      1.00000000      1.00000000      1.00000000      1.00000000      1.00000000      1.00000000      1.00000000      1.00000000      1.00000000      1.00000000      1.00000000      1.00000000      1.00000000
      1.00000000      1.00000000      1.00000000      1.00000000      1.00000000      1.00000000      1.00000000      1.00000000      1.00000000      1.00000000      1.00000000      1.00000000      1.00000000      1.00000000      1.00000000      1.00000000      1.00000000      1.00000000      1.00000000      1.00000000
      1.00000000      1.00000000      1.00000000      1.00000000      1.00000000      1.00000000      1.00000000      1.00000000      1.00000000      1.00000000      1.00000000      1.00000000      1.00000000      1.00000000      1.00000000      1.00000000      1.00000000      1.00000000      1.00000000      1.00000000
      1.00000000      1.00000000      1.00000000      1.00000000      1.00000000      1.00000000</v>
    <i name="NUPDOWN">     -1.00000000</i>
    <i type="logical" name="LSORBIT"> F  </i>
    <v name="SAXIS">      0.00000000      0.00000000      1.00000000</v>
    <i type="logical" name="LSPIRAL"> F  </i>
    <v name="QSPIRAL">      0.00000000      0.00000000      0.00000000</v>
    <i type="logical" name="LZEROZ"> F  </i>
   </separator>
   <separator name="electronic exchange-correlation" >
    <i type="logical" name="LASPH"> F  </i>
    <i type="logical" name="LMETAGGA"> F  </i>
   </separator>
   <separator name="electronic convergence" >
    <i type="int" name="NELM">   150</i>
    <i type="int" name="NELMDL">    -5</i>
    <i type="int" name="NELMIN">     2</i>
    <i name="ENINI">    530.00000000</i>
    <separator name="electronic convergence detail" >
     <i type="logical" name="LDIAG"> T  </i>
     <i type="logical" name="LSUBROT"> F  </i>
     <i name="WEIMIN">      0.00000000</i>
     <i name="EBREAK">      0.00000000</i>
     <i name="DEPER">      0.30000000</i>
     <i type="int" name="NRMM">     4</i>
     <i name="TIME">      0.40000000</i>
    </separator>
   </separator>
   <separator name="electronic mixer" >
    <i name="AMIX">      0.40000000</i>
    <i name="BMIX">      1.00000000</i>
    <i name="AMIN">      0.01000000</i>
    <i name="AMIX_MAG">      1.60000000</i>
    <i name="BMIX_MAG">      1.00000000</i>
    <separator name="electronic mixer details" >
     <i type="int" name="IMIX">     4</i>
     <i type="logical" name="MIXFIRST"> F  </i>
     <i type="int" name="MAXMIX">   -45</i>
     <i name="WC">    100.00000000</i>
     <i type="int" name="INIMIX">     1</i>
     <i type="int" name="MIXPRE">     1</i>
     <i type="int" name="MREMOVE">     5</i>
    </separator>
   </separator>
   <separator name="electronic dipolcorrection" >
    <i type="logical" name="LDIPOL"> F  </i>
    <i type="logical" name="LMONO"> F  </i>
    <i type="int" name="IDIPOL">     0</i>
    <i name="EPSILON">      1.00000000</i>
    <v name="DIPOL">   -100.00000000   -100.00000000   -100.00000000</v>
    <i name="EFIELD">      0.00000000</i>
   </separator>
  </separator>
  <separator name="grids" >
   <i type="int" name="NGX">    72</i>
   <i type="int" name="NGY">    64</i>
   <i type="int" name="NGZ">   162</i>
   <i type="int" name="NGXF">   144</i>
   <i type="int" name="NGYF">   128</i>
   <i type="int" name="NGZF">   324</i>
   <i type="logical" name="ADDGRID"> F  </i>
  </separator>
  <separator name="ionic" >
   <i type="int" name="NSW">     0</i>
   <i type="int" name="IBRION">    -1</i>
   <i type="int" name="MDALGO">     0</i>
   <i type="int" name="ISIF">     2</i>
   <i name="PSTRESS">      0.00000000</i>
   <i name="EDIFFG">     -0.01000000</i>
   <i type="int" name="NFREE">     0</i>
   <i name="POTIM">      0.50000000</i>
   <i name="SMASS">     -3.00000000</i>
   <i name="SCALEE">      1.00000000</i>
  </separator>
  <separator name="ionic md" >
   <i name="TEBEG">      0.00010000</i>
   <i name="TEEND">      0.00010000</i>
   <i type="int" name="NBLOCK">     1</i>
   <i type="int" name="KBLOCK">     1</i>
   <i type="int" name="NPACO">   256</i>
   <i name="APACO">     10.00000000</i>
  </separator>
  <separator name="symmetry" >
   <i type="int" name="ISYM">     2</i>
   <i name="SYMPREC">      0.00001000</i>
  </separator>
  <separator name="dos" >
   <i type="int" name="LORBIT">     0</i>
   <v name="RWIGS">     -1.00000000     -1.00000000     -1.00000000     -1.00000000</v>
   <i type="int" name="NEDOS">   301</i>
   <i name="EMIN">     10.00000000</i>
   <i name="EMAX">    -10.00000000</i>
   <i name="EFERMI">      0.00000000</i>
  </separator>
  <separator name="writing" >
   <i type="int" name="NWRITE">     2</i>
   <i type="logical" name="LWAVE"> T  </i>
   <i type="logical" name="LDOWNSAMPLE"> F  </i>
   <i type="logical" name="LCHARG"> F  </i>
   <i type="logical" name="LPARD"> F  </i>
   <i type="logical" name="LVTOT"> F  </i>
   <i type="logical" name="LVHAR"> F  </i>
   <i type="logical" name="LELF"> T  </i>
   <i type="logical" name="LOPTICS"> F  </i>
   <v name="STM">      0.00000000      0.00000000      0.00000000      0.00000000      0.00000000      0.00000000      0.00000000</v>
  </separator>
  <separator name="performance" >
   <i type="int" name="NPAR">     4</i>
   <i type="int" name="NSIM">     4</i>
   <i type="int" name="NBLK">    -1</i>
   <i type="logical" name="LPLANE"> T  </i>
   <i type="logical" name="LSCALAPACK"> T  </i>
   <i type="logical" name="LSCAAWARE"> F  </i>
   <i type="logical" name="LSCALU"> F  </i>
   <i type="logical" name="LASYNC"> F  </i>
   <i type="logical" name="LORBITALREAL"> F  </i>
  </separator>
  <separator name="miscellaneous" >
   <i type="int" name="IDIOT">     3</i>
   <i type="int" name="PHON_NSTRUCT">    -1</i>
   <i type="logical" name="LMUSIC"> F  </i>
   <v name="POMASS">     16.00000000     18.99800000     26.98100000     39.09800000</v>
   <v name="DARWINR">      0.00000000      0.00000000      0.00000000      0.00000000</v>
   <v name="DARWINV">      1.00000000      1.00000000      1.00000000      1.00000000</v>
   <i type="logical" name="LCORR"> T  </i>
  </separator>
  <i type="logical" name="GGA_COMPAT"> T  </i>
  <i type="logical" name="LBERRY"> F  </i>
  <i type="int" name="ICORELEVEL">     0</i>
  <i type="logical" name="LDAU"> F  </i>
  <i type="int" name="I_CONSTRAINED_M">     0</i>
  <separator name="electronic exchange-correlation" >
   <i type="string" name="GGA">--</i>
   <i type="int" name="VOSKOWN">     0</i>
   <i type="logical" name="LHFCALC"> F  </i>
   <i type="string" name="PRECFOCK"></i>
   <i type="logical" name="LSYMGRAD"> F  </i>
   <i type="logical" name="LHFONE"> F  </i>
   <i type="logical" name="LRHFCALC"> F  </i>
   <i type="logical" name="LTHOMAS"> F  </i>
   <i type="logical" name="LMODELHF"> F  </i>
   <i type="logical" name="LFOCKACE"> F  </i>
   <i name="ENCUT4O">     -1.00000000</i>
   <i type="int" name="EXXOEP">     0</i>
   <i type="int" name="FOURORBIT">     0</i>
   <i name="AEXX">      0.00000000</i>
   <i name="HFALPHA">      0.00000000</i>
   <i name="MCALPHA">      0.00000000</i>
   <i name="ALDAX">      1.00000000</i>
   <i name="AGGAX">      1.00000000</i>
   <i name="ALDAC">      1.00000000</i>
   <i name="AGGAC">      1.00000000</i>
   <i type="int" name="NKREDX">     1</i>
   <i type="int" name="NKREDY">     1</i>
   <i type="int" name="NKREDZ">     1</i>
   <i type="logical" name="SHIFTRED"> F  </i>
   <i type="logical" name="ODDONLY"> F  </i>
   <i type="logical" name="EVENONLY"> F  </i>
   <i type="int" name="LMAXFOCK">     0</i>
   <i type="int" name="NMAXFOCKAE">     0</i>
   <i type="logical" name="LFOCKAEDFT"> F  </i>
   <i name="HFSCREEN">      0.00000000</i>
   <i name="HFSCREENC">      0.00000000</i>
   <i type="int" name="NBANDSGWLOW">     0</i>
  </separator>
  <separator name="vdW DFT" >
   <i type="logical" name="LUSE_VDW"> F  </i>
   <i name="Zab_VDW">     -0.84910000</i>
   <i name="PARAM1">      0.12340000</i>
   <i name="PARAM2">      1.00000000</i>
   <i name="PARAM3">      0.00000000</i>
  </separator>
  <separator name="model GW" >
   <i type="int" name="MODEL_GW">     0</i>
   <i name="MODEL_EPS0">     15.69235885</i>
   <i name="MODEL_ALPHA">      1.00000000</i>
  </separator>
  <separator name="linear response parameters" >
   <i type="logical" name="LEPSILON"> F  </i>
   <i type="logical" name="LRPA"> F  </i>
   <i type="logical" name="LNABLA"> F  </i>
   <i type="logical" name="LVEL"> F  </i>
   <i name="CSHIFT">      0.10000000</i>
   <i name="OMEGAMAX">     -1.00000000</i>
   <i name="DEG_THRESHOLD">      0.00200000</i>
   <i name="RTIME">     -0.10000000</i>
   <i name="WPLASMAI">      0.00000000</i>
   <v name="DFIELD">      0.00000000      0.00000000      0.00000000</v>
   <v name="WPLASMA">      0.00000000      0.00000000      0.00000000      0.00000000      0.00000000      0.00000000      0.00000000      0.00000000      0.00000000</v>
  </separator>
  <separator name="orbital magnetization" >
   <i type="logical" name="NUCIND"> F  </i>
   <v name="MAGPOS">      0.00000000      0.00000000      0.00000000</v>
   <i type="logical" name="LNICSALL"> T  </i>
   <i type="logical" name="ORBITALMAG"> F  </i>
   <i type="logical" name="LMAGBLOCH"> F  </i>
   <i type="logical" name="LCHIMAG"> F  </i>
   <i type="logical" name="LGAUGE"> T  </i>
   <i type="int" name="MAGATOM">     0</i>
   <v name="MAGDIPOL">      0.00000000      0.00000000      0.00000000</v>
   <v name="AVECCONST">      0.00000000      0.00000000      0.00000000</v>
  </separator>
  <separator name="response functions" >
   <i type="logical" name="LFINITE_TEMPERATURE"> F  </i>
   <i type="logical" name="LADDER"> F  </i>
   <i type="logical" name="LRPAFORCE"> F  </i>
   <i type="logical" name="LFXC"> F  </i>
   <i type="logical" name="LHARTREE"> T  </i>
   <i type="int" name="IBSE">     0</i>
   <v type="int" name="KPOINT">    -1     0     0     0</v>
   <i type="logical" name="LTCTC"> F  </i>
   <i type="logical" name="LTCTE"> F  </i>
   <i type="logical" name="LTETE"> F  </i>
   <i type="logical" name="LTRIPLET"> F  </i>
   <i type="logical" name="LFXCEPS"> F  </i>
   <i type="logical" name="LFXHEG"> F  </i>
   <i type="int" name="NATURALO">     2</i>
   <i type="logical" name="LHOLEGF"> F  </i>
   <i type="logical" name="L2ORDER"> F  </i>
   <i type="logical" name="LDMP1"> F  </i>
   <i type="logical" name="LMP2LT"> F  </i>
   <i type="logical" name="LSMP2LT"> F  </i>
   <i type="logical" name="LGWLF"> F  </i>
   <i name="ENCUTGW">     -2.00000000</i>
   <i name="ENCUTGWSOFT">     -2.00000000</i>
   <i name="ENCUTLF">     -1.00000000</i>
   <i type="logical" name="LESF_SPLINES"> F  </i>
   <i type="int" name="LMAXMP2">    -1</i>
   <i name="SCISSOR">      0.00000000</i>
   <i type="int" name="NOMEGA">     0</i>
   <i type="int" name="NOMEGAR">     0</i>
   <i type="int" name="NBANDSGW">    -1</i>
   <i type="int" name="NBANDSO">    -1</i>
   <i type="int" name="NBANDSV">    -1</i>
   <i type="int" name="NELMGW">     1</i>
   <i type="int" name="NELMHF">     1</i>
   <i type="int" name="DIM">     3</i>
   <i type="int" name="IESPILON">     4</i>
   <i type="int" name="ANTIRES">     0</i>
   <i name="OMEGAMAX">    -30.00000000</i>
   <i name="OMEGAMIN">    -30.00000000</i>
   <i name="OMEGATL">   -200.00000000</i>
   <i type="int" name="OMEGAGRID">     0</i>
   <i name="CSHIFT">     -0.10000000</i>
   <i type="logical" name="LSELFENERGY"> F  </i>
   <i type="logical" name="LSPECTRAL"> F  </i>
   <i type="logical" name="LSPECTRALGW"> F  </i>
   <i type="logical" name="LSINGLES"> F  </i>
   <i type="logical" name="LFERMIGW"> F  </i>
   <i type="logical" name="ODDONLYGW"> F  </i>
   <i type="logical" name="EVENONLYGW"> F  </i>
   <i type="int" name="NKREDLFX">     1</i>
   <i type="int" name="NKREDLFY">     1</i>
   <i type="int" name="NKREDLFZ">     1</i>
   <i type="int" name="MAXMEM">  2800</i>
   <i type="int" name="TELESCOPE">     0</i>
   <i type="int" name="NTAUPAR">    -1</i>
   <i type="int" name="NOMEGAPAR">    -1</i>
   <i name="DAMP_NEWTON">      0.80000001</i>
   <i name="LAMBDA">      1.00000000</i>
  </separator>
  <separator name="External order field" >
   <i name="OFIELD_KAPPA">      0.00000000</i>
   <v name="OFIELD_K">      0.00000000      0.00000000      0.00000000</v>
   <i name="OFIELD_Q6_NEAR">      0.00000000</i>
   <i name="OFIELD_Q6_FAR">      0.00000000</i>
   <i name="OFIELD_A">      0.00000000</i>
  </separator>
  <separator name="optional k-points parameters" >
   <i type="int" name="KPOINTS_OPT_MODE">     1</i>
   <i type="logical" name="LKPOINTS_OPT"> F  </i>
  </separator>
  <separator name="solvation model" >
   <i type="logical" name="LSOL"> F  </i>
  </separator>
 </parameters>
 <atominfo>
  <atoms>      66 </atoms>
  <types>       4 </types>
  <array name="atoms" >
   <dimension dim="1">ion</dimension>
   <field type="string">element</field>
   <field type="int">atomtype</field>
   <set>
    <rc><c>O </c><c>   1</c></rc>
    <rc><c>O </c><c>   1</c></rc>
    <rc><c>O </c><c>   1</c></rc>
    <rc><c>O </c><c>   1</c></rc>
    <rc><c>O </c><c>   1</c></rc>
    <rc><c>O </c><c>   1</c></rc>
    <rc><c>O </c><c>   1</c></rc>
    <rc><c>O </c><c>   1</c></rc>
    <rc><c>O </c><c>   1</c></rc>
    <rc><c>O </c><c>   1</c></rc>
    <rc><c>O </c><c>   1</c></rc>
    <rc><c>O </c><c>   1</c></rc>
    <rc><c>O </c><c>   1</c></rc>
    <rc><c>O </c><c>   1</c></rc>
    <rc><c>O </c><c>   1</c></rc>
    <rc><c>O </c><c>   1</c></rc>
    <rc><c>O </c><c>   1</c></rc>
    <rc><c>O </c><c>   1</c></rc>
    <rc><c>O </c><c>   1</c></rc>
    <rc><c>O </c><c>   1</c></rc>
    <rc><c>O </c><c>   1</c></rc>
    <rc><c>O </c><c>   1</c></rc>
    <rc><c>O </c><c>   1</c></rc>
    <rc><c>O </c><c>   1</c></rc>
    <rc><c>O </c><c>   1</c></rc>
    <rc><c>O </c><c>   1</c></rc>
    <rc><c>O </c><c>   1</c></rc>
    <rc><c>O </c><c>   1</c></rc>
    <rc><c>O </c><c>   1</c></rc>
    <rc><c>O </c><c>   1</c></rc>
    <rc><c>O </c><c>   1</c></rc>
    <rc><c>O </c><c>   1</c></rc>
    <rc><c>O </c><c>   1</c></rc>
    <rc><c>O </c><c>   1</c></rc>
    <rc><c>O </c><c>   1</c></rc>
    <rc><c>O </c><c>   1</c></rc>
    <rc><c>F </c><c>   2</c></rc>
    <rc><c>Al</c><c>   3</c></rc>
    <rc><c>Al</c><c>   3</c></rc>
    <rc><c>Al</c><c>   3</c></rc>
    <rc><c>Al</c><c>   3</c></rc>
    <rc><c>Al</c><c>   3</c></rc>
    <rc><c>Al</c><c>   3</c></rc>
    <rc><c>Al</c><c>   3</c></rc>
    <rc><c>Al</c><c>   3</c></rc>
    <rc><c>Al</c><c>   3</c></rc>
    <rc><c>Al</c><c>   3</c></rc>
    <rc><c>Al</c><c>   3</c></rc>
    <rc><c>Al</c><c>   3</c></rc>
    <rc><c>Al</c><c>   3</c></rc>
    <rc><c>Al</c><c>   3</c></rc>
    <rc><c>Al</c><c>   3</c></rc>
    <rc><c>Al</c><c>   3</c></rc>
    <rc><c>Al</c><c>   3</c></rc>
    <rc><c>Al</c><c>   3</c></rc>
    <rc><c>Al</c><c>   3</c></rc>
    <rc><c>Al</c><c>   3</c></rc>
    <rc><c>Al</c><c>   3</c></rc>
    <rc><c>Al</c><c>   3</c></rc>
    <rc><c>Al</c><c>   3</c></rc>
    <rc><c>Al</c><c>   3</c></rc>
    <rc><c>Al</c><c>   3</c></rc>
    <rc><c>Al</c><c>   3</c></rc>
    <rc><c>Al</c><c>   3</c></rc>
    <rc><c>Al</c><c>   3</c></rc>
    <rc><c>K </c><c>   4</c></rc>
   </set>
  </array>
  <array name="atomtypes" >
   <dimension dim="1">type</dimension>
   <field type="int">atomspertype</field>
   <field type="string">element</field>
   <field>mass</field>
   <field>valence</field>
   <field type="string">pseudopotential</field>
   <set>
    <rc><c>  36</c><c>O </c><c>     16.00000000</c><c>      6.00000000</c><c>  PAW_PBE O 08Apr2002                   </c></rc>
    <rc><c>   1</c><c>F </c><c>     18.99800000</c><c>      7.00000000</c><c>  PAW_PBE F 08Apr2002                   </c></rc>
    <rc><c>  28</c><c>Al</c><c>     26.98100000</c><c>      3.00000000</c><c>  PAW_PBE Al 04Jan2001                  </c></rc>
    <rc><c>   1</c><c>K </c><c>     39.09800000</c><c>      9.00000000</c><c>  PAW_PBE K_sv 06Sep2000                </c></rc>
   </set>
  </array>
 </atominfo>
 <structure name="initialpos" >
  <crystal>
   <varray name="basis" >
    <v>       9.61490200       0.00000000       0.00000000 </v>
    <v>       0.00000000       8.32674900       0.00000000 </v>
    <v>       0.00000000       0.00000000      21.56058700 </v>
   </varray>
   <i name="volume">   1726.15947396 </i>
   <varray name="rec_basis" >
    <v>       0.10400522       0.00000000       0.00000000 </v>
    <v>       0.00000000       0.12009489       0.00000000 </v>
    <v>       0.00000000       0.00000000       0.04638093 </v>
   </varray>
  </crystal>
  <varray name="positions" >
   <v>       0.17345600       0.98642000       0.06215200 </v>
   <v>       0.42345600       0.48642000       0.06215200 </v>
   <v>       0.09691300       0.50000000       0.16358100 </v>
   <v>       0.34691300       0.00000000       0.16358100 </v>
   <v>       0.15308800       0.33333300       0.06215200 </v>
   <v>       0.40308800       0.83333300       0.06215200 </v>
   <v>       0.17345600       0.68024500       0.06215200 </v>
   <v>       0.42345600       0.18024600       0.06215200 </v>
   <v>       0.07654400       0.15308700       0.16358100 </v>
   <v>       0.32654400       0.65308700       0.16358100 </v>
   <v>       0.07654400       0.84691200       0.16358100 </v>
   <v>       0.32654400       0.34691200       0.16358100 </v>
   <v>       0.17345600       0.31975500       0.26500900 </v>
   <v>       0.42345600       0.81975500       0.26500900 </v>
   <v>       0.15308700       0.66666700       0.26500900 </v>
   <v>       0.40308800       0.16666700       0.26500900 </v>
   <v>       0.17345600       0.01358000       0.26500900 </v>
   <v>       0.42345600       0.51357900       0.26500900 </v>
   <v>       0.67345600       0.98642000       0.06215200 </v>
   <v>       0.92345600       0.48642000       0.06215200 </v>
   <v>       0.59691300       0.50000000       0.16358100 </v>
   <v>       0.84691300       0.00000000       0.16358100 </v>
   <v>       0.65308800       0.33333300       0.06215200 </v>
   <v>       0.90308800       0.83333300       0.06215200 </v>
   <v>       0.67345600       0.68024500       0.06215200 </v>
   <v>       0.92345600       0.18024500       0.06215200 </v>
   <v>       0.57654400       0.15308700       0.16358100 </v>
   <v>       0.82654400       0.65308700       0.16358100 </v>
   <v>       0.57654400       0.84691200       0.16358100 </v>
   <v>       0.82654400       0.34691200       0.16358100 </v>
   <v>       0.67345600       0.31975500       0.26500900 </v>
   <v>       0.92345600       0.81975500       0.26500900 </v>
   <v>       0.65308700       0.66666700       0.26500900 </v>
   <v>       0.90308800       0.16666700       0.26500900 </v>
   <v>       0.67345600       0.01357900       0.26500900 </v>
   <v>       0.92345600       0.51358000       0.26500900 </v>
   <v>       0.48460318       0.32513132       0.37140312 </v>
   <v>       0.00000000       0.66666700       0.20285800 </v>
   <v>       0.25000000       0.16666700       0.20285800 </v>
   <v>       0.00000000       0.33333300       0.12430300 </v>
   <v>       0.25000000       0.83333300       0.12430300 </v>
   <v>       0.00000000       0.00000000       0.10142900 </v>
   <v>       0.25000000       0.50000000       0.10142900 </v>
   <v>       0.00000000       0.66666700       0.02287500 </v>
   <v>       0.25000000       0.16666700       0.02287500 </v>
   <v>       0.99811674       0.33412541       0.27112062 </v>
   <v>       0.25082607       0.83128589       0.26996375 </v>
   <v>       0.00000000       0.00000000       0.22573200 </v>
   <v>       0.25000000       0.50000000       0.22573200 </v>
   <v>       0.00000000       0.33333300       0.00000000 </v>
   <v>       0.25000000       0.83333300       0.00000000 </v>
   <v>       0.50000000       0.66666700       0.20285800 </v>
   <v>       0.75000000       0.16666700       0.20285800 </v>
   <v>       0.50000000       0.33333300       0.12430300 </v>
   <v>       0.75000000       0.83333300       0.12430300 </v>
   <v>       0.50000000       0.00000000       0.10142900 </v>
   <v>       0.75000000       0.50000000       0.10142900 </v>
   <v>       0.50000000       0.66666700       0.02287500 </v>
   <v>       0.75000000       0.16666700       0.02287500 </v>
   <v>       0.50298789       0.33614908       0.29123695 </v>
   <v>       0.74937339       0.83319508       0.27534822 </v>
   <v>       0.50000000       0.00000000       0.22573200 </v>
   <v>       0.75000000       0.50000000       0.22573200 </v>
   <v>       0.50000000       0.33333300       0.00000000 </v>
   <v>       0.75000000       0.83333300       0.00000000 </v>
   <v>       0.26523728       0.16890335       0.37221838 </v>
  </varray>
  <varray name="selective"  type="logical" >
   <v type="logical" >  F  F  F </v>
   <v type="logical" >  F  F  F </v>
   <v type="logical" >  F  F  F </v>
   <v type="logical" >  F  F  F </v>
   <v type="logical" >  F  F  F </v>
   <v type="logical" >  F  F  F </v>
   <v type="logical" >  F  F  F </v>
   <v type="logical" >  F  F  F </v>
   <v type="logical" >  F  F  F </v>
   <v type="logical" >  F  F  F </v>
   <v type="logical" >  F  F  F </v>
   <v type="logical" >  F  F  F </v>
   <v type="logical" >  F  F  F </v>
   <v type="logical" >  F  F  F </v>
   <v type="logical" >  F  F  F </v>
   <v type="logical" >  F  F  F </v>
   <v type="logical" >  F  F  F </v>
   <v type="logical" >  F  F  F </v>
   <v type="logical" >  F  F  F </v>
   <v type="logical" >  F  F  F </v>
   <v type="logical" >  F  F  F </v>
   <v type="logical" >  F  F  F </v>
   <v type="logical" >  F  F  F </v>
   <v type="logical" >  F  F  F </v>
   <v type="logical" >  F  F  F </v>
   <v type="logical" >  F  F  F </v>
   <v type="logical" >  F  F  F </v>
   <v type="logical" >  F  F  F </v>
   <v type="logical" >  F  F  F </v>
   <v type="logical" >  F  F  F </v>
   <v type="logical" >  F  F  F </v>
   <v type="logical" >  F  F  F </v>
   <v type="logical" >  F  F  F </v>
   <v type="logical" >  F  F  F </v>
   <v type="logical" >  F  F  F </v>
   <v type="logical" >  F  F  F </v>
   <v type="logical" >  T  T  T </v>
   <v type="logical" >  F  F  F </v>
   <v type="logical" >  F  F  F </v>
   <v type="logical" >  F  F  F </v>
   <v type="logical" >  F  F  F </v>
   <v type="logical" >  F  F  F </v>
   <v type="logical" >  F  F  F </v>
   <v type="logical" >  F  F  F </v>
   <v type="logical" >  F  F  F </v>
   <v type="logical" >  T  T  T </v>
   <v type="logical" >  T  T  T </v>
   <v type="logical" >  F  F  F </v>
   <v type="logical" >  F  F  F </v>
   <v type="logical" >  F  F  F </v>
   <v type="logical" >  F  F  F </v>
   <v type="logical" >  F  F  F </v>
   <v type="logical" >  F  F  F </v>
   <v type="logical" >  F  F  F </v>
   <v type="logical" >  F  F  F </v>
   <v type="logical" >  F  F  F </v>
   <v type="logical" >  F  F  F </v>
   <v type="logical" >  F  F  F </v>
   <v type="logical" >  F  F  F </v>
   <v type="logical" >  T  T  T </v>
   <v type="logical" >  T  T  T </v>
   <v type="logical" >  F  F  F </v>
   <v type="logical" >  F  F  F </v>
   <v type="logical" >  F  F  F </v>
   <v type="logical" >  F  F  F </v>
   <v type="logical" >  T  T  T </v>
  </varray>
  <nose>
   <v>      -3.00000000       0.00000000       0.00010000       0.00010000 </v>
  </nose>
 </structure>
 <calculation>
  <scstep>
   <time name="dav">   35.63    5.15</time>
   <time name="total">   39.12    5.66</time>
   <energy>
    <i name="alphaZ">    176.72120775 </i>
    <i name="ewald">  74706.88310488 </i>
    <i name="hartreedc"> -90946.19169234 </i>
    <i name="XCdc">    352.26950386 </i>
    <i name="pawpsdc">  15462.61785476 </i>
    <i name="pawaedc"> -14632.69968608 </i>
    <i name="eentropy">      0.00000000 </i>
    <i name="bandstr">   -595.84057362 </i>
    <i name="atom">  18498.60587364 </i>
    <i name="e_fr_energy">   3022.36559284 </i>
    <i name="e_wo_entrp">   3022.36559284 </i>
    <i name="e_0_energy">   3022.36559284 </i>
   </energy>
  </scstep>
  <scstep>
   <time name="dav">   43.20    6.21</time>
   <time name="total">   43.30    6.22</time>
   <energy>
    <i name="e_fr_energy">      1.40559618 </i>
    <i name="e_wo_entrp">      1.40559618 </i>
    <i name="e_0_energy">      1.40559618 </i>
   </energy>
  </scstep>
  <scstep>
   <time name="dav">   39.53    5.69</time>
   <time name="total">   39.63    5.70</time>
   <energy>
    <i name="e_fr_energy">   -497.48583021 </i>
    <i name="e_wo_entrp">   -497.48583021 </i>
    <i name="e_0_energy">   -497.48583021 </i>
   </energy>
  </scstep>
  <scstep>
   <time name="dav">   39.60    5.69</time>
   <time name="total">   39.70    5.70</time>
   <energy>
    <i name="e_fr_energy">   -512.43838237 </i>
    <i name="e_wo_entrp">   -512.43838237 </i>
    <i name="e_0_energy">   -512.43838237 </i>
   </energy>
  </scstep>
  <scstep>
   <time name="dav">   42.53    6.11</time>
   <time name="total">   43.71    6.28</time>
   <energy>
    <i name="e_fr_energy">   -512.86188010 </i>
    <i name="e_wo_entrp">   -512.86188010 </i>
    <i name="e_0_energy">   -512.86188010 </i>
   </energy>
  </scstep>
  <scstep>
   <time name="diag">    4.12    0.59</time>
   <time name="diis">    3.89    1.55</time>
   <time name="orth">    0.60    0.31</time>
   <time name="total">   12.38    3.06</time>
   <energy>
    <i name="e_fr_energy">   -453.00866234 </i>
    <i name="e_wo_entrp">   -453.00866234 </i>
    <i name="e_0_energy">   -453.00866234 </i>
   </energy>
  </scstep>
  <scstep>
   <time name="diag">    4.10    0.59</time>
   <time name="diis">    4.01    1.61</time>
   <time name="orth">    0.60    0.30</time>
   <time name="total">   12.47    3.12</time>
   <energy>
    <i name="e_fr_energy">   -453.54554736 </i>
    <i name="e_wo_entrp">   -453.54554736 </i>
    <i name="e_0_energy">   -453.54554736 </i>
   </energy>
  </scstep>
  <scstep>
   <time name="diag">    4.11    0.59</time>
   <time name="diis">    3.93    1.57</time>
   <time name="orth">    0.60    0.30</time>
   <time name="total">   12.48    3.09</time>
   <energy>
    <i name="e_fr_energy">   -452.74276911 </i>
    <i name="e_wo_entrp">   -452.74276911 </i>
    <i name="e_0_energy">   -452.74276911 </i>
   </energy>
  </scstep>
  <scstep>
   <time name="diag">    4.10    0.59</time>
   <time name="diis">    4.32    1.76</time>
   <time name="orth">    0.59    0.30</time>
   <time name="total">   12.81    3.28</time>
   <energy>
    <i name="e_fr_energy">   -452.67516978 </i>
    <i name="e_wo_entrp">   -452.67516978 </i>
    <i name="e_0_energy">   -452.67516978 </i>
   </energy>
  </scstep>
  <scstep>
   <time name="diag">    4.06    0.58</time>
   <time name="diis">    4.50    1.85</time>
   <time name="orth">    0.61    0.31</time>
   <time name="total">   13.01    3.37</time>
   <energy>
    <i name="e_fr_energy">   -452.56768029 </i>
    <i name="e_wo_entrp">   -452.56768029 </i>
    <i name="e_0_energy">   -452.56768029 </i>
   </energy>
  </scstep>
  <scstep>
   <time name="diag">    4.10    0.59</time>
   <time name="diis">    4.92    2.05</time>
   <time name="orth">    0.61    0.31</time>
   <time name="total">   13.44    3.57</time>
   <energy>
    <i name="e_fr_energy">   -452.48147850 </i>
    <i name="e_wo_entrp">   -452.48147850 </i>
    <i name="e_0_energy">   -452.48147850 </i>
   </energy>
  </scstep>
  <scstep>
   <time name="diag">    4.10    0.59</time>
   <time name="diis">    4.46    1.83</time>
   <time name="orth">    0.60    0.31</time>
   <time name="total">   13.02    3.36</time>
   <energy>
    <i name="e_fr_energy">   -452.41570944 </i>
    <i name="e_wo_entrp">   -452.41570944 </i>
    <i name="e_0_energy">   -452.41570944 </i>
   </energy>
  </scstep>
  <scstep>
   <time name="diag">    4.10    0.59</time>
   <time name="diis">    4.83    2.02</time>
   <time name="orth">    0.60    0.31</time>
   <time name="total">   13.33    3.54</time>
   <energy>
    <i name="e_fr_energy">   -452.34383217 </i>
    <i name="e_wo_entrp">   -452.34383217 </i>
    <i name="e_0_energy">   -452.34383217 </i>
   </energy>
  </scstep>
  <scstep>
   <time name="diag">    4.10    0.59</time>
   <time name="diis">    4.69    1.95</time>
   <time name="orth">    0.60    0.31</time>
   <time name="total">   13.53    3.52</time>
   <energy>
    <i name="e_fr_energy">   -452.25069168 </i>
    <i name="e_wo_entrp">   -452.25069168 </i>
    <i name="e_0_energy">   -452.25069168 </i>
   </energy>
  </scstep>
  <scstep>
   <time name="diag">    4.30    0.62</time>
   <time name="diis">    4.65    2.01</time>
   <time name="orth">    0.60    0.31</time>
   <time name="total">   13.31    3.55</time>
   <energy>
    <i name="e_fr_energy">   -452.18251537 </i>
    <i name="e_wo_entrp">   -452.18251537 </i>
    <i name="e_0_energy">   -452.18251537 </i>
   </energy>
  </scstep>
  <scstep>
   <time name="diag">    4.35    0.62</time>
   <time name="diis">    4.69    1.95</time>
   <time name="orth">    0.60    0.30</time>
   <time name="total">   13.84    3.56</time>
   <energy>
    <i name="e_fr_energy">   -452.17573827 </i>
    <i name="e_wo_entrp">   -452.17573827 </i>
    <i name="e_0_energy">   -452.17573827 </i>
   </energy>
  </scstep>
  <scstep>
   <time name="diag">    4.12    0.59</time>
   <time name="diis">    4.60    1.91</time>
   <time name="orth">    0.60    0.31</time>
   <time name="total">   13.21    3.44</time>
   <energy>
    <i name="e_fr_energy">   -452.17837413 </i>
    <i name="e_wo_entrp">   -452.17837413 </i>
    <i name="e_0_energy">   -452.17837413 </i>
   </energy>
  </scstep>
  <scstep>
   <time name="diag">    4.11    0.59</time>
   <time name="diis">    4.67    1.94</time>
   <time name="orth">    0.60    0.31</time>
   <time name="total">   13.25    3.47</time>
   <energy>
    <i name="e_fr_energy">   -452.19592534 </i>
    <i name="e_wo_entrp">   -452.19592534 </i>
    <i name="e_0_energy">   -452.19592534 </i>
   </energy>
  </scstep>
  <scstep>
   <time name="diag">    4.10    0.59</time>
   <time name="diis">    5.07    2.14</time>
   <time name="orth">    0.60    0.31</time>
   <time name="total">   13.53    3.65</time>
   <energy>
    <i name="e_fr_energy">   -452.20053865 </i>
    <i name="e_wo_entrp">   -452.20053865 </i>
    <i name="e_0_energy">   -452.20053865 </i>
   </energy>
  </scstep>
  <scstep>
   <time name="diag">    4.11    0.59</time>
   <time name="diis">    4.56    1.88</time>
   <time name="orth">    0.60    0.30</time>
   <time name="total">   13.01    3.39</time>
   <energy>
    <i name="e_fr_energy">   -452.20999288 </i>
    <i name="e_wo_entrp">   -452.20999288 </i>
    <i name="e_0_energy">   -452.20999288 </i>
   </energy>
  </scstep>
  <scstep>
   <time name="diag">    4.17    0.60</time>
   <time name="diis">    4.81    2.01</time>
   <time name="orth">    0.60    0.31</time>
   <time name="total">   13.35    3.53</time>
   <energy>
    <i name="e_fr_energy">   -452.21385866 </i>
    <i name="e_wo_entrp">   -452.21385866 </i>
    <i name="e_0_energy">   -452.21385866 </i>
   </energy>
  </scstep>
  <scstep>
   <time name="diag">    4.10    0.59</time>
   <time name="diis">    4.58    1.90</time>
   <time name="orth">    0.60    0.31</time>
   <time name="total">   13.06    3.41</time>
   <energy>
    <i name="e_fr_energy">   -452.21648224 </i>
    <i name="e_wo_entrp">   -452.21648224 </i>
    <i name="e_0_energy">   -452.21648224 </i>
   </energy>
  </scstep>
  <scstep>
   <time name="diag">    4.12    0.59</time>
   <time name="diis">    4.84    2.03</time>
   <time name="orth">    0.60    0.30</time>
   <time name="total">   13.31    3.54</time>
   <energy>
    <i name="e_fr_energy">   -452.21730703 </i>
    <i name="e_wo_entrp">   -452.21730703 </i>
    <i name="e_0_energy">   -452.21730703 </i>
   </energy>
  </scstep>
  <scstep>
   <time name="diag">    4.11    0.59</time>
   <time name="diis">    4.93    2.07</time>
   <time name="orth">    0.60    0.30</time>
   <time name="total">   13.75    3.63</time>
   <energy>
    <i name="e_fr_energy">   -452.21765628 </i>
    <i name="e_wo_entrp">   -452.21765628 </i>
    <i name="e_0_energy">   -452.21765628 </i>
   </energy>
  </scstep>
  <scstep>
   <time name="diag">    4.13    0.59</time>
   <time name="diis">    5.05    2.13</time>
   <time name="orth">    0.60    0.31</time>
   <time name="total">   14.01    3.71</time>
   <energy>
    <i name="e_fr_energy">   -452.21786371 </i>
    <i name="e_wo_entrp">   -452.21786371 </i>
    <i name="e_0_energy">   -452.21786371 </i>
   </energy>
  </scstep>
  <scstep>
   <time name="diag">    4.11    0.59</time>
   <time name="diis">    4.87    2.04</time>
   <time name="orth">    0.60    0.31</time>
   <time name="total">   13.40    3.56</time>
   <energy>
    <i name="e_fr_energy">   -452.21800242 </i>
    <i name="e_wo_entrp">   -452.21800242 </i>
    <i name="e_0_energy">   -452.21800242 </i>
   </energy>
  </scstep>
  <scstep>
   <time name="diag">    4.10    0.59</time>
   <time name="diis">    4.80    2.01</time>
   <time name="orth">    0.61    0.31</time>
   <time name="total">   13.31    3.53</time>
   <energy>
    <i name="e_fr_energy">   -452.21800332 </i>
    <i name="e_wo_entrp">   -452.21800332 </i>
    <i name="e_0_energy">   -452.21800332 </i>
   </energy>
  </scstep>
  <scstep>
   <time name="diag">    4.10    0.59</time>
   <time name="diis">    4.94    2.06</time>
   <time name="orth">    0.61    0.31</time>
   <time name="total">   13.54    3.59</time>
   <energy>
    <i name="e_fr_energy">   -452.21800966 </i>
    <i name="e_wo_entrp">   -452.21800966 </i>
    <i name="e_0_energy">   -452.21800966 </i>
   </energy>
  </scstep>
  <scstep>
   <time name="diag">    4.11    0.59</time>
   <time name="diis">    5.17    2.17</time>
   <time name="orth">    0.61    0.31</time>
   <time name="total">   13.68    3.69</time>
   <energy>
    <i name="e_fr_energy">   -452.21816668 </i>
    <i name="e_wo_entrp">   -452.21816668 </i>
    <i name="e_0_energy">   -452.21816668 </i>
   </energy>
  </scstep>
  <scstep>
   <time name="diag">    4.12    0.59</time>
   <time name="diis">    4.83    2.00</time>
   <time name="orth">    0.61    0.31</time>
   <time name="total">   13.42    3.53</time>
   <energy>
    <i name="e_fr_energy">   -452.21829042 </i>
    <i name="e_wo_entrp">   -452.21829042 </i>
    <i name="e_0_energy">   -452.21829042 </i>
   </energy>
  </scstep>
  <scstep>
   <time name="diag">    4.11    0.59</time>
   <time name="diis">    4.29    1.73</time>
   <time name="orth">    0.61    0.31</time>
   <time name="total">   12.75    3.24</time>
   <energy>
    <i name="e_fr_energy">   -452.21830222 </i>
    <i name="e_wo_entrp">   -452.21830222 </i>
    <i name="e_0_energy">   -452.21830222 </i>
   </energy>
  </scstep>
  <scstep>
   <time name="diag">    4.13    0.59</time>
   <time name="diis">    4.92    2.05</time>
   <time name="orth">    0.61    0.31</time>
   <time name="total">   13.45    3.57</time>
   <energy>
    <i name="e_fr_energy">   -452.21845462 </i>
    <i name="e_wo_entrp">   -452.21845462 </i>
    <i name="e_0_energy">   -452.21845462 </i>
   </energy>
  </scstep>
  <scstep>
   <time name="diag">    4.08    0.59</time>
   <time name="diis">    3.94    1.57</time>
   <time name="orth">    0.60    0.31</time>
   <time name="total">   12.42    3.09</time>
   <energy>
    <i name="e_fr_energy">   -452.21849783 </i>
    <i name="e_wo_entrp">   -452.21849783 </i>
    <i name="e_0_energy">   -452.21849783 </i>
   </energy>
  </scstep>
  <scstep>
   <time name="diag">    4.11    0.59</time>
   <time name="diis">    3.40    1.30</time>
   <time name="orth">    0.60    0.31</time>
   <time name="total">   11.89    2.82</time>
   <energy>
    <i name="e_fr_energy">   -452.21850591 </i>
    <i name="e_wo_entrp">   -452.21850591 </i>
    <i name="e_0_energy">   -452.21850591 </i>
   </energy>
  </scstep>
  <scstep>
   <time name="diag">    4.11    0.60</time>
   <time name="diis">    3.20    1.20</time>
   <time name="orth">    0.60    0.31</time>
   <time name="total">   11.69    2.72</time>
   <energy>
    <i name="e_fr_energy">   -452.21851471 </i>
    <i name="e_wo_entrp">   -452.21851471 </i>
    <i name="e_0_energy">   -452.21851471 </i>
   </energy>
  </scstep>
  <scstep>
   <time name="diag">    4.10    0.59</time>
   <time name="diis">    3.64    1.42</time>
   <time name="orth">    0.60    0.31</time>
   <time name="total">   12.13    2.94</time>
   <energy>
    <i name="e_fr_energy">   -452.21854782 </i>
    <i name="e_wo_entrp">   -452.21854782 </i>
    <i name="e_0_energy">   -452.21854782 </i>
   </energy>
  </scstep>
  <scstep>
   <time name="diag">    4.09    0.59</time>
   <time name="diis">    3.38    1.29</time>
   <time name="orth">    0.60    0.31</time>
   <time name="total">   11.88    2.82</time>
   <energy>
    <i name="e_fr_energy">   -452.21855605 </i>
    <i name="e_wo_entrp">   -452.21855605 </i>
    <i name="e_0_energy">   -452.21855605 </i>
   </energy>
  </scstep>
  <scstep>
   <time name="diag">    4.09    0.59</time>
   <time name="diis">    3.21    1.21</time>
   <time name="orth">    0.60    0.31</time>
   <time name="total">   11.06    2.57</time>
   <energy>
    <i name="alphaZ">    176.72120775 </i>
    <i name="ewald">  74706.88310488 </i>
    <i name="hartreedc"> -92256.52912281 </i>
    <i name="XCdc">    405.68008243 </i>
    <i name="pawpsdc">  25615.23635674 </i>
    <i name="pawaedc"> -24797.39284403 </i>
    <i name="eentropy">      0.00000000 </i>
    <i name="bandstr">  -2801.42321412 </i>
    <i name="atom">  18498.60587364 </i>
    <i name="e_fr_energy">   -452.21855551 </i>
    <i name="e_wo_entrp">   -452.21855551 </i>
    <i name="e_0_energy">   -452.21855551 </i>
   </energy>
  </scstep>
  <structure>
   <crystal>
    <varray name="basis" >
     <v>       9.61490200       0.00000000       0.00000000 </v>
     <v>       0.00000000       8.32674900       0.00000000 </v>
     <v>       0.00000000       0.00000000      21.56058700 </v>
    </varray>
    <i name="volume">   1726.15947396 </i>
    <varray name="rec_basis" >
     <v>       0.10400522       0.00000000       0.00000000 </v>
     <v>       0.00000000       0.12009489       0.00000000 </v>
     <v>       0.00000000       0.00000000       0.04638093 </v>
    </varray>
   </crystal>
   <varray name="positions" >
    <v>       0.17345600       0.98642000       0.06215200 </v>
    <v>       0.42345600       0.48642000       0.06215200 </v>
    <v>       0.09691300       0.50000000       0.16358100 </v>
    <v>       0.34691300       0.00000000       0.16358100 </v>
    <v>       0.15308800       0.33333300       0.06215200 </v>
    <v>       0.40308800       0.83333300       0.06215200 </v>
    <v>       0.17345600       0.68024500       0.06215200 </v>
    <v>       0.42345600       0.18024600       0.06215200 </v>
    <v>       0.07654400       0.15308700       0.16358100 </v>
    <v>       0.32654400       0.65308700       0.16358100 </v>
    <v>       0.07654400       0.84691200       0.16358100 </v>
    <v>       0.32654400       0.34691200       0.16358100 </v>
    <v>       0.17345600       0.31975500       0.26500900 </v>
    <v>       0.42345600       0.81975500       0.26500900 </v>
    <v>       0.15308700       0.66666700       0.26500900 </v>
    <v>       0.40308800       0.16666700       0.26500900 </v>
    <v>       0.17345600       0.01358000       0.26500900 </v>
    <v>       0.42345600       0.51357900       0.26500900 </v>
    <v>       0.67345600       0.98642000       0.06215200 </v>
    <v>       0.92345600       0.48642000       0.06215200 </v>
    <v>       0.59691300       0.50000000       0.16358100 </v>
    <v>       0.84691300       0.00000000       0.16358100 </v>
    <v>       0.65308800       0.33333300       0.06215200 </v>
    <v>       0.90308800       0.83333300       0.06215200 </v>
    <v>       0.67345600       0.68024500       0.06215200 </v>
    <v>       0.92345600       0.18024500       0.06215200 </v>
    <v>       0.57654400       0.15308700       0.16358100 </v>
    <v>       0.82654400       0.65308700       0.16358100 </v>
    <v>       0.57654400       0.84691200       0.16358100 </v>
    <v>       0.82654400       0.34691200       0.16358100 </v>
    <v>       0.67345600       0.31975500       0.26500900 </v>
    <v>       0.92345600       0.81975500       0.26500900 </v>
    <v>       0.65308700       0.66666700       0.26500900 </v>
    <v>       0.90308800       0.16666700       0.26500900 </v>
    <v>       0.67345600       0.01357900       0.26500900 </v>
    <v>       0.92345600       0.51358000       0.26500900 </v>
    <v>       0.48460318       0.32513132       0.37140312 </v>
    <v>       0.00000000       0.66666700       0.20285800 </v>
    <v>       0.25000000       0.16666700       0.20285800 </v>
    <v>       0.00000000       0.33333300       0.12430300 </v>
    <v>       0.25000000       0.83333300       0.12430300 </v>
    <v>       0.00000000       0.00000000       0.10142900 </v>
    <v>       0.25000000       0.50000000       0.10142900 </v>
    <v>       0.00000000       0.66666700       0.02287500 </v>
    <v>       0.25000000       0.16666700       0.02287500 </v>
    <v>       0.99811674       0.33412541       0.27112062 </v>
    <v>       0.25082607       0.83128589       0.26996375 </v>
    <v>       0.00000000       0.00000000       0.22573200 </v>
    <v>       0.25000000       0.50000000       0.22573200 </v>
    <v>       0.00000000       0.33333300       0.00000000 </v>
    <v>       0.25000000       0.83333300       0.00000000 </v>
    <v>       0.50000000       0.66666700       0.20285800 </v>
    <v>       0.75000000       0.16666700       0.20285800 </v>
    <v>       0.50000000       0.33333300       0.12430300 </v>
    <v>       0.75000000       0.83333300       0.12430300 </v>
    <v>       0.50000000       0.00000000       0.10142900 </v>
    <v>       0.75000000       0.50000000       0.10142900 </v>
    <v>       0.50000000       0.66666700       0.02287500 </v>
    <v>       0.75000000       0.16666700       0.02287500 </v>
    <v>       0.50298789       0.33614908       0.29123695 </v>
    <v>       0.74937339       0.83319508       0.27534822 </v>
    <v>       0.50000000       0.00000000       0.22573200 </v>
    <v>       0.75000000       0.50000000       0.22573200 </v>
    <v>       0.50000000       0.33333300       0.00000000 </v>
    <v>       0.75000000       0.83333300       0.00000000 </v>
    <v>       0.26523728       0.16890335       0.37221838 </v>
   </varray>
  </structure>
  <varray name="forces" >
   <v>      -0.42050851      -0.04707279       0.38419773 </v>
   <v>      -0.39023431       0.00643441       0.20293588 </v>
   <v>      -0.23466845      -0.13236085      -0.20822919 </v>
   <v>      -0.45235008      -0.30022891      -0.34893289 </v>
   <v>       0.08555427       0.32808111       0.28610018 </v>
   <v>       0.12472075       0.34748487       0.30508889 </v>
   <v>       0.18014545      -0.29009960       0.33462650 </v>
   <v>       0.15531922      -0.32604906       0.21084845 </v>
   <v>       0.04188976       0.17254566      -0.15454620 </v>
   <v>      -0.24158464       0.46339564      -0.45766088 </v>
   <v>       0.27591463      -0.04703834      -0.18635771 </v>
   <v>      -0.24898511      -0.05058109      -0.59135405 </v>
   <v>       0.37293088       0.90739803      -0.23354804 </v>
   <v>       1.18472368       1.27304654      -0.71779418 </v>
   <v>       0.07609510      -1.63473850      -0.85876123 </v>
   <v>       0.76686816      -0.70366506      -0.78564020 </v>
   <v>      -1.39579327       0.09197383      -0.29583443 </v>
   <v>      -1.41270133      -0.26263171      -1.18851730 </v>
   <v>      -0.31643677      -0.07060786       0.22680388 </v>
   <v>      -0.32854433      -0.03212369       0.30636168 </v>
   <v>       0.06763648       0.07551653      -0.74788798 </v>
   <v>       0.01882737      -0.10040289      -0.36954929 </v>
   <v>       0.20100089       0.29039827       0.14760388 </v>
   <v>       0.20748413       0.35723719       0.35643886 </v>
   <v>       0.24020885      -0.23565802       0.19800858 </v>
   <v>       0.26785463      -0.31903206       0.35330778 </v>
   <v>      -0.02280237      -0.10130905      -0.67138303 </v>
   <v>       0.15830129       0.23609408      -0.37886406 </v>
   <v>       0.10895777      -0.09496183      -0.40557459 </v>
   <v>       0.52542087      -0.12691864      -0.45801076 </v>
   <v>       0.68522643       1.21230509      -1.20036171 </v>
   <v>       0.91415477       1.20874719      -0.72802622 </v>
   <v>       0.64636794      -1.16633487      -0.74492237 </v>
   <v>       0.74208127      -1.71000810      -0.68682943 </v>
   <v>      -1.28520303       0.02217195      -0.71446852 </v>
   <v>      -1.37532406       0.74982717      -0.86519891 </v>
   <v>       0.00629260      -0.00411462      -0.01926438 </v>
   <v>      -0.23541543      -0.02907599       2.46883930 </v>
   <v>       0.95198005       0.37084840       2.16237747 </v>
   <v>      -0.11856226       0.04271740      -0.33474192 </v>
   <v>       0.15682681      -0.04068319      -0.36634766 </v>
   <v>      -0.11390731       0.01242466      -0.01657548 </v>
   <v>       0.18617716      -0.14405263       0.18372178 </v>
   <v>      -0.03710338      -0.00280398      -0.52753892 </v>
   <v>       0.07632254       0.01097479      -0.48414371 </v>
   <v>       0.00224834      -0.00059922      -0.00978156 </v>
   <v>      -0.00103052       0.00123249       0.00344785 </v>
   <v>      -0.49302886      -0.09618490       1.00747411 </v>
   <v>       1.19097407      -0.13285121       1.24698951 </v>
   <v>      -0.03375916      -0.00348045      -0.82757904 </v>
   <v>       0.04316787      -0.00115039      -0.84034193 </v>
   <v>       0.10662052      -0.80342158       2.77685340 </v>
   <v>      -0.79013597       0.40713109       2.77095144 </v>
   <v>       0.07497949       0.01964580       0.67167897 </v>
   <v>      -0.10711988      -0.02304110      -0.04173938 </v>
   <v>       0.15168237       0.13765443       0.26143598 </v>
   <v>      -0.22481838      -0.00091903       0.28698215 </v>
   <v>      -0.00953068      -0.02173956      -0.43701797 </v>
   <v>      -0.01177081       0.00121391      -0.44242532 </v>
   <v>       0.00801690       0.00532995      -0.00887500 </v>
   <v>      -0.00021049       0.00017123       0.01252966 </v>
   <v>       0.19625142       0.76770489       1.27280114 </v>
   <v>      -0.86640259      -0.45979601       1.44024025 </v>
   <v>      -0.02922611       0.00056812      -0.75075167 </v>
   <v>      -0.00169929       0.00114913      -0.79235287 </v>
   <v>      -0.00036738      -0.00568708       0.01908468 </v>
  </varray>
  <varray name="stress" >
   <v>      20.87200620       0.32762610      -0.03620618 </v>
   <v>       0.32762616      21.18576391       0.01171620 </v>
   <v>      -0.03620603       0.01171612       3.06260131 </v>
  </varray>
  <energy>
   <i name="e_fr_energy">   -452.21855551 </i>
   <i name="e_wo_entrp">   -452.21855551 </i>
   <i name="e_0_energy">   -452.21855551 </i>
  </energy>
  <time name="totalsc">  656.92  146.90</time>
  <eigenvalues>
   <array>
    <dimension dim="1">band</dimension>
    <dimension dim="2">kpoint</dimension>
    <dimension dim="3">spin</dimension>
    <field>eigene</field>
    <field>occ</field>
    <set>
     <set comment="spin 1">
      <set comment="kpoint 1">
       <r>  -30.7774    1.0000 </r>
       <r>  -23.3295    1.0000 </r>
       <r>  -21.7027    1.0000 </r>
       <r>  -21.0004    1.0000 </r>
       <r>  -20.9852    1.0000 </r>
       <r>  -20.9063    1.0000 </r>
       <r>  -20.7290    1.0000 </r>
       <r>  -20.6538    1.0000 </r>
       <r>  -20.4526    1.0000 </r>
       <r>  -20.4127    1.0000 </r>
       <r>  -20.0971    1.0000 </r>
       <r>  -20.0749    1.0000 </r>
       <r>  -20.0279    1.0000 </r>
       <r>  -19.9680    1.0000 </r>
       <r>  -19.8846    1.0000 </r>
       <r>  -19.8784    1.0000 </r>
       <r>  -19.7676    1.0000 </r>
       <r>  -19.7175    1.0000 </r>
       <r>  -19.6261    1.0000 </r>
       <r>  -19.5921    1.0000 </r>
       <r>  -19.5829    1.0000 </r>
       <r>  -19.5365    1.0000 </r>
       <r>  -19.5174    1.0000 </r>
       <r>  -19.5003    1.0000 </r>
       <r>  -19.4330    1.0000 </r>
       <r>  -19.2948    1.0000 </r>
       <r>  -19.2848    1.0000 </r>
       <r>  -19.2231    1.0000 </r>
       <r>  -19.1508    1.0000 </r>
       <r>  -19.0940    1.0000 </r>
       <r>  -19.0100    1.0000 </r>
       <r>  -18.8401    1.0000 </r>
       <r>  -18.8055    1.0000 </r>
       <r>  -18.5905    1.0000 </r>
       <r>  -18.5070    1.0000 </r>
       <r>  -18.1783    1.0000 </r>
       <r>  -17.8269    1.0000 </r>
       <r>  -17.6714    1.0000 </r>
       <r>  -14.3578    1.0000 </r>
       <r>  -14.2474    1.0000 </r>
       <r>  -14.1994    1.0000 </r>
       <r>   -9.1217    1.0000 </r>
       <r>   -9.0242    1.0000 </r>
       <r>   -8.7363    1.0000 </r>
       <r>   -8.7294    1.0000 </r>
       <r>   -8.6876    1.0000 </r>
       <r>   -8.6054    1.0000 </r>
       <r>   -8.5840    1.0000 </r>
       <r>   -8.5634    1.0000 </r>
       <r>   -8.3991    1.0000 </r>
       <r>   -8.3429    1.0000 </r>
       <r>   -8.1772    1.0000 </r>
       <r>   -8.1481    1.0000 </r>
       <r>   -8.0980    1.0000 </r>
       <r>   -7.9462    1.0000 </r>
       <r>   -7.9301    1.0000 </r>
       <r>   -7.9031    1.0000 </r>
       <r>   -7.7339    1.0000 </r>
       <r>   -7.6484    1.0000 </r>
       <r>   -7.5793    1.0000 </r>
       <r>   -7.5572    1.0000 </r>
       <r>   -7.3561    1.0000 </r>
       <r>   -7.2584    1.0000 </r>
       <r>   -7.2028    1.0000 </r>
       <r>   -7.1704    1.0000 </r>
       <r>   -7.1255    1.0000 </r>
       <r>   -7.0988    1.0000 </r>
       <r>   -7.0135    1.0000 </r>
       <r>   -6.9287    1.0000 </r>
       <r>   -6.7939    1.0000 </r>
       <r>   -6.7439    1.0000 </r>
       <r>   -6.7207    1.0000 </r>
       <r>   -6.5761    1.0000 </r>
       <r>   -6.5198    1.0000 </r>
       <r>   -6.4328    1.0000 </r>
       <r>   -6.3828    1.0000 </r>
       <r>   -6.3064    1.0000 </r>
       <r>   -6.2789    1.0000 </r>
       <r>   -6.1881    1.0000 </r>
       <r>   -6.1656    1.0000 </r>
       <r>   -6.1031    1.0000 </r>
       <r>   -5.9400    1.0000 </r>
       <r>   -5.9168    1.0000 </r>
       <r>   -5.7980    1.0000 </r>
       <r>   -5.7737    1.0000 </r>
       <r>   -5.7452    1.0000 </r>
       <r>   -5.6847    1.0000 </r>
       <r>   -5.6030    1.0000 </r>
       <r>   -5.5666    1.0000 </r>
       <r>   -5.5168    1.0000 </r>
       <r>   -5.3045    1.0000 </r>
       <r>   -5.2079    1.0000 </r>
       <r>   -5.1939    1.0000 </r>
       <r>   -5.1738    1.0000 </r>
       <r>   -5.1224    1.0000 </r>
       <r>   -5.1098    1.0000 </r>
       <r>   -5.0683    1.0000 </r>
       <r>   -5.0443    1.0000 </r>
       <r>   -5.0118    1.0000 </r>
       <r>   -4.9832    1.0000 </r>
       <r>   -4.8924    1.0000 </r>
       <r>   -4.8676    1.0000 </r>
       <r>   -4.7467    1.0000 </r>
       <r>   -4.6821    1.0000 </r>
       <r>   -4.6348    1.0000 </r>
       <r>   -4.6154    1.0000 </r>
       <r>   -4.5411    1.0000 </r>
       <r>   -4.4974    1.0000 </r>
       <r>   -4.4727    1.0000 </r>
       <r>   -4.4435    1.0000 </r>
       <r>   -4.3914    1.0000 </r>
       <r>   -4.3610    1.0000 </r>
       <r>   -4.3440    1.0000 </r>
       <r>   -4.2909    1.0000 </r>
       <r>   -4.2639    1.0000 </r>
       <r>   -4.2585    1.0000 </r>
       <r>   -4.2273    1.0000 </r>
       <r>   -4.1812    1.0000 </r>
       <r>   -4.1300    1.0000 </r>
       <r>   -4.0889    1.0000 </r>
       <r>   -4.0498    1.0000 </r>
       <r>   -4.0081    1.0000 </r>
       <r>   -3.9595    1.0000 </r>
       <r>   -3.9069    1.0000 </r>
       <r>   -3.8725    1.0000 </r>
       <r>   -3.8164    1.0000 </r>
       <r>   -3.7833    1.0000 </r>
       <r>   -3.7340    1.0000 </r>
       <r>   -3.7116    1.0000 </r>
       <r>   -3.6317    1.0000 </r>
       <r>   -3.6296    1.0000 </r>
       <r>   -3.5739    1.0000 </r>
       <r>   -3.5465    1.0000 </r>
       <r>   -3.5237    1.0000 </r>
       <r>   -3.4798    1.0000 </r>
       <r>   -3.3815    1.0000 </r>
       <r>   -3.3397    1.0000 </r>
       <r>   -3.2710    1.0000 </r>
       <r>   -3.2340    1.0000 </r>
       <r>   -3.1887    1.0000 </r>
       <r>   -3.1046    1.0000 </r>
       <r>   -3.0925    1.0000 </r>
       <r>   -2.9133    1.0000 </r>
       <r>   -2.8786    1.0000 </r>
       <r>   -2.8416    1.0000 </r>
       <r>   -2.7240    1.0000 </r>
       <r>   -2.6403    1.0000 </r>
       <r>   -2.4559    1.0000 </r>
       <r>   -2.3722    1.0000 </r>
       <r>   -2.1764    1.0000 </r>
       <r>   -1.8413    1.0000 </r>
       <r>   -1.6528    1.0000 </r>
       <r>   -1.3982    1.0000 </r>
       <r>   -0.5048    1.0000 </r>
       <r>   -0.5019    1.0000 </r>
       <r>   -0.4481    1.0000 </r>
       <r>    0.4536    1.0000 </r>
       <r>    0.6013    1.0000 </r>
       <r>    0.6020    0.6252 </r>
       <r>    1.7763    0.0000 </r>
       <r>    2.4950    0.0000 </r>
       <r>    2.4974    0.0000 </r>
       <r>    2.7180    0.0000 </r>
       <r>    2.8766    0.0000 </r>
       <r>    2.9315    0.0000 </r>
       <r>    3.2479    0.0000 </r>
       <r>    3.6087    0.0000 </r>
       <r>    3.7907    0.0000 </r>
       <r>    3.7920    0.0000 </r>
       <r>    4.1186    0.0000 </r>
       <r>    4.5283    0.0000 </r>
       <r>    4.5564    0.0000 </r>
       <r>    4.7678    0.0000 </r>
       <r>    4.9218    0.0000 </r>
       <r>    5.0492    0.0000 </r>
       <r>    5.1285    0.0000 </r>
       <r>    5.3734    0.0000 </r>
       <r>    5.4555    0.0000 </r>
       <r>    5.5148    0.0000 </r>
       <r>    5.6157    0.0000 </r>
       <r>    5.9101    0.0000 </r>
       <r>    6.0383    0.0000 </r>
       <r>    6.1628    0.0000 </r>
       <r>    6.1663    0.0000 </r>
       <r>    6.2177    0.0000 </r>
       <r>    6.2534    0.0000 </r>
       <r>    6.3685    0.0000 </r>
       <r>    6.5763    0.0000 </r>
       <r>    6.6447    0.0000 </r>
       <r>    6.7456    0.0000 </r>
       <r>    6.7936    0.0000 </r>
       <r>    7.3051    0.0000 </r>
      </set>
      <set comment="kpoint 2">
       <r>  -30.7774    1.0000 </r>
       <r>  -23.3295    1.0000 </r>
       <r>  -21.6277    1.0000 </r>
       <r>  -21.3334    1.0000 </r>
       <r>  -20.8520    1.0000 </r>
       <r>  -20.7258    1.0000 </r>
       <r>  -20.6550    1.0000 </r>
       <r>  -20.6388    1.0000 </r>
       <r>  -20.5661    1.0000 </r>
       <r>  -20.4660    1.0000 </r>
       <r>  -20.2019    1.0000 </r>
       <r>  -20.0734    1.0000 </r>
       <r>  -19.9162    1.0000 </r>
       <r>  -19.8937    1.0000 </r>
       <r>  -19.8395    1.0000 </r>
       <r>  -19.8033    1.0000 </r>
       <r>  -19.7515    1.0000 </r>
       <r>  -19.7238    1.0000 </r>
       <r>  -19.6772    1.0000 </r>
       <r>  -19.6544    1.0000 </r>
       <r>  -19.6191    1.0000 </r>
       <r>  -19.6058    1.0000 </r>
       <r>  -19.5064    1.0000 </r>
       <r>  -19.4542    1.0000 </r>
       <r>  -19.4316    1.0000 </r>
       <r>  -19.3218    1.0000 </r>
       <r>  -19.2875    1.0000 </r>
       <r>  -19.2518    1.0000 </r>
       <r>  -19.1642    1.0000 </r>
       <r>  -19.1211    1.0000 </r>
       <r>  -18.9601    1.0000 </r>
       <r>  -18.8258    1.0000 </r>
       <r>  -18.7797    1.0000 </r>
       <r>  -18.6125    1.0000 </r>
       <r>  -18.5067    1.0000 </r>
       <r>  -18.1752    1.0000 </r>
       <r>  -17.8305    1.0000 </r>
       <r>  -17.6747    1.0000 </r>
       <r>  -14.3578    1.0000 </r>
       <r>  -14.2474    1.0000 </r>
       <r>  -14.1994    1.0000 </r>
       <r>   -8.9824    1.0000 </r>
       <r>   -8.9041    1.0000 </r>
       <r>   -8.8525    1.0000 </r>
       <r>   -8.7931    1.0000 </r>
       <r>   -8.7628    1.0000 </r>
       <r>   -8.5479    1.0000 </r>
       <r>   -8.4298    1.0000 </r>
       <r>   -8.4073    1.0000 </r>
       <r>   -8.3939    1.0000 </r>
       <r>   -8.3513    1.0000 </r>
       <r>   -8.2424    1.0000 </r>
       <r>   -8.1882    1.0000 </r>
       <r>   -8.1679    1.0000 </r>
       <r>   -8.0720    1.0000 </r>
       <r>   -7.9510    1.0000 </r>
       <r>   -7.9217    1.0000 </r>
       <r>   -7.8023    1.0000 </r>
       <r>   -7.7359    1.0000 </r>
       <r>   -7.6853    1.0000 </r>
       <r>   -7.5592    1.0000 </r>
       <r>   -7.3264    1.0000 </r>
       <r>   -7.2821    1.0000 </r>
       <r>   -7.2610    1.0000 </r>
       <r>   -7.2388    1.0000 </r>
       <r>   -7.0590    1.0000 </r>
       <r>   -6.9841    1.0000 </r>
       <r>   -6.8962    1.0000 </r>
       <r>   -6.7791    1.0000 </r>
       <r>   -6.7338    1.0000 </r>
       <r>   -6.6985    1.0000 </r>
       <r>   -6.6699    1.0000 </r>
       <r>   -6.6448    1.0000 </r>
       <r>   -6.6004    1.0000 </r>
       <r>   -6.5688    1.0000 </r>
       <r>   -6.4901    1.0000 </r>
       <r>   -6.4472    1.0000 </r>
       <r>   -6.3871    1.0000 </r>
       <r>   -6.2563    1.0000 </r>
       <r>   -6.2096    1.0000 </r>
       <r>   -6.0093    1.0000 </r>
       <r>   -5.9129    1.0000 </r>
       <r>   -5.8379    1.0000 </r>
       <r>   -5.8059    1.0000 </r>
       <r>   -5.7603    1.0000 </r>
       <r>   -5.6621    1.0000 </r>
       <r>   -5.6606    1.0000 </r>
       <r>   -5.5724    1.0000 </r>
       <r>   -5.5120    1.0000 </r>
       <r>   -5.4015    1.0000 </r>
       <r>   -5.3333    1.0000 </r>
       <r>   -5.2734    1.0000 </r>
       <r>   -5.2290    1.0000 </r>
       <r>   -5.1765    1.0000 </r>
       <r>   -5.1139    1.0000 </r>
       <r>   -5.0500    1.0000 </r>
       <r>   -5.0041    1.0000 </r>
       <r>   -4.9634    1.0000 </r>
       <r>   -4.9110    1.0000 </r>
       <r>   -4.8881    1.0000 </r>
       <r>   -4.8412    1.0000 </r>
       <r>   -4.8222    1.0000 </r>
       <r>   -4.7806    1.0000 </r>
       <r>   -4.7045    1.0000 </r>
       <r>   -4.6180    1.0000 </r>
       <r>   -4.5782    1.0000 </r>
       <r>   -4.5380    1.0000 </r>
       <r>   -4.5177    1.0000 </r>
       <r>   -4.4927    1.0000 </r>
       <r>   -4.4695    1.0000 </r>
       <r>   -4.4590    1.0000 </r>
       <r>   -4.4317    1.0000 </r>
       <r>   -4.3894    1.0000 </r>
       <r>   -4.3421    1.0000 </r>
       <r>   -4.2693    1.0000 </r>
       <r>   -4.2421    1.0000 </r>
       <r>   -4.1742    1.0000 </r>
       <r>   -4.1430    1.0000 </r>
       <r>   -4.0630    1.0000 </r>
       <r>   -4.0417    1.0000 </r>
       <r>   -4.0055    1.0000 </r>
       <r>   -3.9825    1.0000 </r>
       <r>   -3.9456    1.0000 </r>
       <r>   -3.9144    1.0000 </r>
       <r>   -3.8841    1.0000 </r>
       <r>   -3.8405    1.0000 </r>
       <r>   -3.8131    1.0000 </r>
       <r>   -3.7623    1.0000 </r>
       <r>   -3.7295    1.0000 </r>
       <r>   -3.7205    1.0000 </r>
       <r>   -3.6816    1.0000 </r>
       <r>   -3.6267    1.0000 </r>
       <r>   -3.5571    1.0000 </r>
       <r>   -3.4945    1.0000 </r>
       <r>   -3.4682    1.0000 </r>
       <r>   -3.4352    1.0000 </r>
       <r>   -3.3246    1.0000 </r>
       <r>   -3.2875    1.0000 </r>
       <r>   -3.2527    1.0000 </r>
       <r>   -3.1806    1.0000 </r>
       <r>   -3.1152    1.0000 </r>
       <r>   -3.0800    1.0000 </r>
       <r>   -2.9653    1.0000 </r>
       <r>   -2.8857    1.0000 </r>
       <r>   -2.8103    1.0000 </r>
       <r>   -2.7140    1.0000 </r>
       <r>   -2.6366    1.0000 </r>
       <r>   -2.4757    1.0000 </r>
       <r>   -2.3792    1.0000 </r>
       <r>   -2.1976    1.0000 </r>
       <r>   -1.9019    1.0000 </r>
       <r>   -1.6577    1.0000 </r>
       <r>   -1.2613    1.0000 </r>
       <r>   -0.9448    1.0000 </r>
       <r>   -0.3480    1.0000 </r>
       <r>   -0.1185    1.0000 </r>
       <r>    0.1322    1.0000 </r>
       <r>    0.3657    1.0000 </r>
       <r>    1.4229   -0.0595 </r>
       <r>    1.8964    0.0000 </r>
       <r>    2.2615    0.0000 </r>
       <r>    2.4523    0.0000 </r>
       <r>    2.5297    0.0000 </r>
       <r>    2.5693    0.0000 </r>
       <r>    2.8802    0.0000 </r>
       <r>    3.0359    0.0000 </r>
       <r>    3.5687    0.0000 </r>
       <r>    3.6462    0.0000 </r>
       <r>    4.0353    0.0000 </r>
       <r>    4.4293    0.0000 </r>
       <r>    4.6091    0.0000 </r>
       <r>    4.6965    0.0000 </r>
       <r>    4.8790    0.0000 </r>
       <r>    5.0358    0.0000 </r>
       <r>    5.1352    0.0000 </r>
       <r>    5.1932    0.0000 </r>
       <r>    5.3512    0.0000 </r>
       <r>    5.4612    0.0000 </r>
       <r>    5.6186    0.0000 </r>
       <r>    5.7029    0.0000 </r>
       <r>    5.8011    0.0000 </r>
       <r>    5.8531    0.0000 </r>
       <r>    6.0179    0.0000 </r>
       <r>    6.1658    0.0000 </r>
       <r>    6.1882    0.0000 </r>
       <r>    6.3311    0.0000 </r>
       <r>    6.4322    0.0000 </r>
       <r>    6.4498    0.0000 </r>
       <r>    6.5204    0.0000 </r>
       <r>    6.8101    0.0000 </r>
       <r>    7.1608    0.0000 </r>
       <r>    7.3467    0.0000 </r>
      </set>
      <set comment="kpoint 3">
       <r>  -30.7774    1.0000 </r>
       <r>  -23.3295    1.0000 </r>
       <r>  -21.6383    1.0000 </r>
       <r>  -21.1613    1.0000 </r>
       <r>  -20.9539    1.0000 </r>
       <r>  -20.9419    1.0000 </r>
       <r>  -20.6907    1.0000 </r>
       <r>  -20.5616    1.0000 </r>
       <r>  -20.5181    1.0000 </r>
       <r>  -20.4578    1.0000 </r>
       <r>  -20.1348    1.0000 </r>
       <r>  -20.0693    1.0000 </r>
       <r>  -19.9848    1.0000 </r>
       <r>  -19.9049    1.0000 </r>
       <r>  -19.8486    1.0000 </r>
       <r>  -19.7797    1.0000 </r>
       <r>  -19.7600    1.0000 </r>
       <r>  -19.7164    1.0000 </r>
       <r>  -19.6815    1.0000 </r>
       <r>  -19.6552    1.0000 </r>
       <r>  -19.6027    1.0000 </r>
       <r>  -19.5668    1.0000 </r>
       <r>  -19.4847    1.0000 </r>
       <r>  -19.4604    1.0000 </r>
       <r>  -19.4232    1.0000 </r>
       <r>  -19.3613    1.0000 </r>
       <r>  -19.2800    1.0000 </r>
       <r>  -19.2404    1.0000 </r>
       <r>  -19.1502    1.0000 </r>
       <r>  -19.0330    1.0000 </r>
       <r>  -19.0095    1.0000 </r>
       <r>  -18.9020    1.0000 </r>
       <r>  -18.7522    1.0000 </r>
       <r>  -18.5962    1.0000 </r>
       <r>  -18.5271    1.0000 </r>
       <r>  -18.1714    1.0000 </r>
       <r>  -17.8185    1.0000 </r>
       <r>  -17.6752    1.0000 </r>
       <r>  -14.3578    1.0000 </r>
       <r>  -14.2474    1.0000 </r>
       <r>  -14.1994    1.0000 </r>
       <r>   -9.0841    1.0000 </r>
       <r>   -9.0173    1.0000 </r>
       <r>   -8.9832    1.0000 </r>
       <r>   -8.9554    1.0000 </r>
       <r>   -8.7577    1.0000 </r>
       <r>   -8.6535    1.0000 </r>
       <r>   -8.6171    1.0000 </r>
       <r>   -8.5971    1.0000 </r>
       <r>   -8.3755    1.0000 </r>
       <r>   -8.3019    1.0000 </r>
       <r>   -8.2447    1.0000 </r>
       <r>   -8.1386    1.0000 </r>
       <r>   -8.0558    1.0000 </r>
       <r>   -7.9080    1.0000 </r>
       <r>   -7.8503    1.0000 </r>
       <r>   -7.8468    1.0000 </r>
       <r>   -7.7134    1.0000 </r>
       <r>   -7.6815    1.0000 </r>
       <r>   -7.6170    1.0000 </r>
       <r>   -7.5316    1.0000 </r>
       <r>   -7.2926    1.0000 </r>
       <r>   -7.2462    1.0000 </r>
       <r>   -7.2052    1.0000 </r>
       <r>   -7.1721    1.0000 </r>
       <r>   -7.0721    1.0000 </r>
       <r>   -7.0414    1.0000 </r>
       <r>   -6.9808    1.0000 </r>
       <r>   -6.8537    1.0000 </r>
       <r>   -6.7808    1.0000 </r>
       <r>   -6.7399    1.0000 </r>
       <r>   -6.6476    1.0000 </r>
       <r>   -6.5700    1.0000 </r>
       <r>   -6.5339    1.0000 </r>
       <r>   -6.4293    1.0000 </r>
       <r>   -6.2921    1.0000 </r>
       <r>   -6.2392    1.0000 </r>
       <r>   -6.1849    1.0000 </r>
       <r>   -6.1553    1.0000 </r>
       <r>   -6.0951    1.0000 </r>
       <r>   -6.0115    1.0000 </r>
       <r>   -5.8667    1.0000 </r>
       <r>   -5.8102    1.0000 </r>
       <r>   -5.7589    1.0000 </r>
       <r>   -5.7274    1.0000 </r>
       <r>   -5.6775    1.0000 </r>
       <r>   -5.6177    1.0000 </r>
       <r>   -5.5251    1.0000 </r>
       <r>   -5.4789    1.0000 </r>
       <r>   -5.4632    1.0000 </r>
       <r>   -5.3410    1.0000 </r>
       <r>   -5.2650    1.0000 </r>
       <r>   -5.2416    1.0000 </r>
       <r>   -5.1886    1.0000 </r>
       <r>   -5.1663    1.0000 </r>
       <r>   -5.1183    1.0000 </r>
       <r>   -5.0641    1.0000 </r>
       <r>   -5.0255    1.0000 </r>
       <r>   -4.9718    1.0000 </r>
       <r>   -4.9339    1.0000 </r>
       <r>   -4.8922    1.0000 </r>
       <r>   -4.8586    1.0000 </r>
       <r>   -4.7852    1.0000 </r>
       <r>   -4.7211    1.0000 </r>
       <r>   -4.6405    1.0000 </r>
       <r>   -4.5939    1.0000 </r>
       <r>   -4.5604    1.0000 </r>
       <r>   -4.5337    1.0000 </r>
       <r>   -4.5030    1.0000 </r>
       <r>   -4.4439    1.0000 </r>
       <r>   -4.4037    1.0000 </r>
       <r>   -4.3709    1.0000 </r>
       <r>   -4.3403    1.0000 </r>
       <r>   -4.3321    1.0000 </r>
       <r>   -4.3027    1.0000 </r>
       <r>   -4.2562    1.0000 </r>
       <r>   -4.2491    1.0000 </r>
       <r>   -4.2014    1.0000 </r>
       <r>   -4.1601    1.0000 </r>
       <r>   -4.0836    1.0000 </r>
       <r>   -4.0584    1.0000 </r>
       <r>   -4.0299    1.0000 </r>
       <r>   -3.9644    1.0000 </r>
       <r>   -3.9362    1.0000 </r>
       <r>   -3.8998    1.0000 </r>
       <r>   -3.8465    1.0000 </r>
       <r>   -3.8239    1.0000 </r>
[...]
       <r>   -26.2443     0.0000     2.0000 </r>
       <r>   -26.1042     0.0000     2.0000 </r>
       <r>   -25.9641     0.0000     2.0000 </r>
       <r>   -25.8241     0.0000     2.0000 </r>
       <r>   -25.6840     0.0000     2.0000 </r>
       <r>   -25.5439     0.0000     2.0000 </r>
       <r>   -25.4038     0.0000     2.0000 </r>
       <r>   -25.2638     0.0000     2.0000 </r>
       <r>   -25.1237     0.0000     2.0000 </r>
       <r>   -24.9836     0.0000     2.0000 </r>
       <r>   -24.8436     0.0000     2.0000 </r>
       <r>   -24.7035     0.0000     2.0000 </r>
       <r>   -24.5634     0.0000     2.0000 </r>
       <r>   -24.4234     0.0000     2.0000 </r>
       <r>   -24.2833     0.0000     2.0000 </r>
       <r>   -24.1432     0.0000     2.0000 </r>
       <r>   -24.0032     0.0000     2.0000 </r>
       <r>   -23.8631     0.0000     2.0000 </r>
       <r>   -23.7230     0.0000     2.0000 </r>
       <r>   -23.5829     0.0000     2.0000 </r>
       <r>   -23.4429     0.0000     2.0000 </r>
       <r>   -23.3028    14.2787     4.0000 </r>
       <r>   -23.1627     0.0000     4.0000 </r>
       <r>   -23.0227     0.0000     4.0000 </r>
       <r>   -22.8826     0.0000     4.0000 </r>
       <r>   -22.7425     0.0000     4.0000 </r>
       <r>   -22.6025     0.0000     4.0000 </r>
       <r>   -22.4624     0.0000     4.0000 </r>
       <r>   -22.3223     0.0000     4.0000 </r>
       <r>   -22.1823     0.0000     4.0000 </r>
       <r>   -22.0422     0.0000     4.0000 </r>
       <r>   -21.9021     0.0000     4.0000 </r>
       <r>   -21.7620     0.0000     4.0000 </r>
       <r>   -21.6220    15.6612     4.4702 </r>
       <r>   -21.4819     6.5008     5.7040 </r>
       <r>   -21.3418     9.4389     6.1747 </r>
       <r>   -21.2018     6.7242     7.6314 </r>
       <r>   -21.0617    11.4858     8.5756 </r>
       <r>   -20.9216    16.9290    10.4228 </r>
       <r>   -20.7816     4.3362    11.8109 </r>
       <r>   -20.6415    24.6627    13.6066 </r>
       <r>   -20.5014    30.4185    16.7564 </r>
       <r>   -20.3614    13.0888    20.0000 </r>
       <r>   -20.2213     0.0000    20.0000 </r>
       <r>   -20.0812    16.6048    21.8468 </r>
       <r>   -19.9411    45.2106    25.9118 </r>
       <r>   -19.8011    75.4388    30.5275 </r>
       <r>   -19.6610    55.2596    37.7833 </r>
       <r>   -19.5209    52.6571    44.0107 </r>
       <r>   -19.3809    58.7012    50.4575 </r>
       <r>   -19.2408   113.3168    55.4010 </r>
       <r>   -19.1007    24.9361    58.1501 </r>
       <r>   -18.9607    22.7104    61.9965 </r>
       <r>   -18.8206    42.4703    63.8941 </r>
       <r>   -18.6805    14.2787    66.0000 </r>
       <r>   -18.5405    58.5688    68.4591 </r>
       <r>   -18.4004     7.1393    70.0000 </r>
       <r>   -18.2603     0.0000    70.0000 </r>
       <r>   -18.1202    14.2787    72.0000 </r>
       <r>   -17.9802     0.0000    72.0000 </r>
       <r>   -17.8401     0.0000    72.0000 </r>
       <r>   -17.7000    14.2787    74.0000 </r>
       <r>   -17.5600    14.2787    76.0000 </r>
       <r>   -17.4199     0.0000    76.0000 </r>
       <r>   -17.2798     0.0000    76.0000 </r>
       <r>   -17.1398     0.0000    76.0000 </r>
       <r>   -16.9997     0.0000    76.0000 </r>
       <r>   -16.8596     0.0000    76.0000 </r>
       <r>   -16.7196     0.0000    76.0000 </r>
       <r>   -16.5795     0.0000    76.0000 </r>
       <r>   -16.4394     0.0000    76.0000 </r>
       <r>   -16.2993     0.0000    76.0000 </r>
       <r>   -16.1593     0.0000    76.0000 </r>
       <r>   -16.0192     0.0000    76.0000 </r>
       <r>   -15.8791     0.0000    76.0000 </r>
       <r>   -15.7391     0.0000    76.0000 </r>
       <r>   -15.5990     0.0000    76.0000 </r>
       <r>   -15.4589     0.0000    76.0000 </r>
       <r>   -15.3189     0.0000    76.0000 </r>
       <r>   -15.1788     0.0000    76.0000 </r>
       <r>   -15.0387     0.0000    76.0000 </r>
       <r>   -14.8987     0.0000    76.0000 </r>
       <r>   -14.7586     0.0000    76.0000 </r>
       <r>   -14.6185     0.0000    76.0000 </r>
       <r>   -14.4784     0.0000    76.0000 </r>
       <r>   -14.3384    14.2787    78.0000 </r>
       <r>   -14.1983    28.5573    82.0000 </r>
       <r>   -14.0582     0.0000    82.0000 </r>
       <r>   -13.9182     0.0000    82.0000 </r>
       <r>   -13.7781     0.0000    82.0000 </r>
       <r>   -13.6380     0.0000    82.0000 </r>
       <r>   -13.4980     0.0000    82.0000 </r>
       <r>   -13.3579     0.0000    82.0000 </r>
       <r>   -13.2178     0.0000    82.0000 </r>
       <r>   -13.0778     0.0000    82.0000 </r>
       <r>   -12.9377     0.0000    82.0000 </r>
       <r>   -12.7976     0.0000    82.0000 </r>
       <r>   -12.6575     0.0000    82.0000 </r>
       <r>   -12.5175     0.0000    82.0000 </r>
       <r>   -12.3774     0.0000    82.0000 </r>
       <r>   -12.2373     0.0000    82.0000 </r>
       <r>   -12.0973     0.0000    82.0000 </r>
       <r>   -11.9572     0.0000    82.0000 </r>
       <r>   -11.8171     0.0000    82.0000 </r>
       <r>   -11.6771     0.0000    82.0000 </r>
       <r>   -11.5370     0.0000    82.0000 </r>
       <r>   -11.3969     0.0000    82.0000 </r>
       <r>   -11.2569     0.0000    82.0000 </r>
       <r>   -11.1168     0.0000    82.0000 </r>
       <r>   -10.9767     0.0000    82.0000 </r>
       <r>   -10.8366     0.0000    82.0000 </r>
       <r>   -10.6966     0.0000    82.0000 </r>
       <r>   -10.5565     0.0000    82.0000 </r>
       <r>   -10.4164     0.0000    82.0000 </r>
       <r>   -10.2764     0.0000    82.0000 </r>
       <r>   -10.1363     0.0000    82.0000 </r>
       <r>    -9.9962     0.0000    82.0000 </r>
       <r>    -9.8562     0.0000    82.0000 </r>
       <r>    -9.7161     0.0000    82.0000 </r>
       <r>    -9.5760     0.0000    82.0000 </r>
       <r>    -9.4360     0.0000    82.0000 </r>
       <r>    -9.2959     0.0000    82.0000 </r>
       <r>    -9.1558     0.0000    82.0000 </r>
       <r>    -9.0157    40.6014    84.1481 </r>
       <r>    -8.8757    46.2545    87.6998 </r>
       <r>    -8.7356    34.1510    92.0099 </r>
       <r>    -8.5955    43.2736    94.6337 </r>
       <r>    -8.4555    41.0235    98.4119 </r>
       <r>    -8.3154    31.1380   102.5144 </r>
       <r>    -8.1753    34.6508   105.7610 </r>
       <r>    -8.0353    24.4540   109.2006 </r>
       <r>    -7.8952    28.3352   112.7908 </r>
       <r>    -7.7551    15.4596   114.4496 </r>
       <r>    -7.6151    36.0481   118.2612 </r>
       <r>    -7.4750    22.8119   121.7917 </r>
       <r>    -7.3349     9.0284   122.0958 </r>
       <r>    -7.1948    73.6269   127.8727 </r>
       <r>    -7.0548    30.1631   131.9300 </r>
       <r>    -6.9147    29.8167   135.3552 </r>
       <r>    -6.7746    36.1982   138.3450 </r>
       <r>    -6.6346    40.9983   142.5466 </r>
       <r>    -6.4945    38.3355   147.5761 </r>
       <r>    -6.3544    32.0264   151.4781 </r>
       <r>    -6.2144    38.4266   155.3507 </r>
       <r>    -6.0743    20.7452   158.8854 </r>
       <r>    -5.9342    16.1493   162.0054 </r>
       <r>    -5.7942    56.0252   165.5300 </r>
       <r>    -5.6541    63.6346   170.9478 </r>
       <r>    -5.5140    48.1368   175.2890 </r>
       <r>    -5.3739    26.8042   179.9313 </r>
       <r>    -5.2339    66.0301   183.7503 </r>
       <r>    -5.0938    64.9100   190.7691 </r>
       <r>    -4.9537    67.7591   197.0255 </r>
       <r>    -4.8137    60.4886   203.3036 </r>
       <r>    -4.6736    53.7440   208.6654 </r>
       <r>    -4.5335    58.7871   214.7423 </r>
       <r>    -4.3935    87.2218   223.5065 </r>
       <r>    -4.2534   159.3588   231.8004 </r>
       <r>    -4.1133    75.9950   238.7820 </r>
       <r>    -3.9733    81.6543   246.0029 </r>
       <r>    -3.8332    78.2752   252.8759 </r>
       <r>    -3.6931    61.5554   259.9159 </r>
       <r>    -3.5531    66.5980   267.0645 </r>
       <r>    -3.4130    50.6343   272.2713 </r>
       <r>    -3.2729    59.3929   277.2039 </r>
       <r>    -3.1328    45.3430   281.2425 </r>
       <r>    -2.9928    15.4685   284.0000 </r>
       <r>    -2.8527    69.7810   288.4276 </r>
       <r>    -2.7126    17.8483   292.0000 </r>
       <r>    -2.5726    14.2787   294.0000 </r>
       <r>    -2.4325    14.2787   296.0000 </r>
       <r>    -2.2924   122.3130   298.1037 </r>
       <r>    -2.1524     7.1393   300.0000 </r>
       <r>    -2.0123     0.0000   300.0000 </r>
       <r>    -1.8722    19.1226   301.8699 </r>
       <r>    -1.7322    33.8511   302.4622 </r>
       <r>    -1.5921     7.1393   304.0000 </r>
       <r>    -1.4520     0.0000   304.0000 </r>
       <r>    -1.3119     4.0907   304.1764 </r>
       <r>    -1.1719     7.8716   305.1752 </r>
       <r>    -1.0318     4.1288   305.7800 </r>
       <r>    -0.8917    14.6086   306.8840 </r>
       <r>    -0.7517     3.0555   307.6671 </r>
       <r>    -0.6116    11.7258   308.4938 </r>
       <r>    -0.4715    15.1823   310.1530 </r>
       <r>    -0.3315     3.4189   311.5024 </r>
       <r>    -0.1914     1.9953   311.8816 </r>
       <r>    -0.0513     0.0000   312.0000 </r>
       <r>     0.0887     0.0000   312.0000 </r>
       <r>     0.2288     1.9864   312.1501 </r>
       <r>     0.3689     4.1635   312.5191 </r>
       <r>     0.5090     9.8769   313.6698 </r>
       <r>     0.6490     7.4878   314.8803 </r>
       <r>     0.7891     7.0791   315.8156 </r>
       <r>     0.9292     1.3519   316.2266 </r>
       <r>     1.0692     1.8608   316.4516 </r>
       <r>     1.2093     2.3698   316.7478 </r>
       <r>     1.3494     5.1712   317.4666 </r>
       <r>     1.4894     2.0283   317.9658 </r>
       <r>     1.6295     2.1060   318.2554 </r>
       <r>     1.7696     2.2077   318.5578 </r>
       <r>     1.9096    12.2595   319.3236 </r>
       <r>     2.0497     0.0000   320.0000 </r>
       <r>     2.1898     8.4611   320.8636 </r>
       <r>     2.3299     3.0190   321.4470 </r>
       <r>     2.4699    21.6501   322.9522 </r>
       <r>     2.6100    14.1154   324.8376 </r>
       <r>     2.7501    11.2479   326.7678 </r>
       <r>     2.8901    27.1860   329.1338 </r>
       <r>     3.0302     1.1899   330.0000 </r>
       <r>     3.1703    14.0442   331.8614 </r>
       <r>     3.3103     2.5874   332.4393 </r>
       <r>     3.4504     2.7405   332.8065 </r>
       <r>     3.5905     9.7622   333.7666 </r>
       <r>     3.7305    22.0905   335.3452 </r>
       <r>     3.8706     1.2271   336.0483 </r>
       <r>     4.0107     3.7228   336.3776 </r>
       <r>     4.1508     6.1928   337.1993 </r>
       <r>     4.2908     5.9920   337.9241 </r>
       <r>     4.4309    20.9946   339.1869 </r>
       <r>     4.5710    18.4255   340.5817 </r>
       <r>     4.7110    24.0405   343.8070 </r>
       <r>     4.8511    22.1652   346.1982 </r>
       <r>     4.9912    24.4537   348.2445 </r>
       <r>     5.1312    45.3409   351.2178 </r>
       <r>     5.2713     9.2446   353.3556 </r>
       <r>     5.4114    27.4560   356.1499 </r>
       <r>     5.5514    19.1896   358.2129 </r>
       <r>     5.6915    18.1129   360.4680 </r>
       <r>     5.8316    10.4209   361.9688 </r>
       <r>     5.9717    18.1490   364.5031 </r>
       <r>     6.1117    17.2059   366.6408 </r>
       <r>     6.2518    18.5110   368.9469 </r>
       <r>     6.3919    16.3289   371.1078 </r>
       <r>     6.5319    14.5155   373.0705 </r>
       <r>     6.6720    19.7624   375.2576 </r>
       <r>     6.8121    20.9891   377.8710 </r>
       <r>     6.9521    10.0981   379.4175 </r>
       <r>     7.0922    14.7562   380.9549 </r>
       <r>     7.2323     0.0000   382.0000 </r>
       <r>     7.3723    15.0931   383.6926 </r>
       <r>     7.5124     0.0000   384.0000 </r>
       <r>     7.6525     0.0000   384.0000 </r>
       <r>     7.7926     0.0000   384.0000 </r>
       <r>     7.9326     0.0000   384.0000 </r>
       <r>     8.0727     0.0000   384.0000 </r>
       <r>     8.2128     0.0000   384.0000 </r>
       <r>     8.3528     0.0000   384.0000 </r>
       <r>     8.4929     0.0000   384.0000 </r>
       <r>     8.6330     0.0000   384.0000 </r>
       <r>     8.7730     0.0000   384.0000 </r>
       <r>     8.9131     0.0000   384.0000 </r>
       <r>     9.0532     0.0000   384.0000 </r>
       <r>     9.1932     0.0000   384.0000 </r>
       <r>     9.3333     0.0000   384.0000 </r>
      </set>
     </set>
    </array>
   </total>
  </dos>
 </calculation>
 <structure name="finalpos" >
  <crystal>
   <varray name="basis" >
    <v>       9.61490200       0.00000000       0.00000000 </v>
    <v>       0.00000000       8.32674900       0.00000000 </v>
    <v>       0.00000000       0.00000000      21.56058700 </v>
   </varray>
   <i name="volume">   1726.15947396 </i>
   <varray name="rec_basis" >
    <v>       0.10400522       0.00000000       0.00000000 </v>
    <v>       0.00000000       0.12009489       0.00000000 </v>
    <v>       0.00000000       0.00000000       0.04638093 </v>
   </varray>
  </crystal>
  <varray name="positions" >
   <v>       0.17345600       0.98642000       0.06215200 </v>
   <v>       0.42345600       0.48642000       0.06215200 </v>
   <v>       0.09691300       0.50000000       0.16358100 </v>
   <v>       0.34691300       0.00000000       0.16358100 </v>
   <v>       0.15308800       0.33333300       0.06215200 </v>
   <v>       0.40308800       0.83333300       0.06215200 </v>
   <v>       0.17345600       0.68024500       0.06215200 </v>
   <v>       0.42345600       0.18024600       0.06215200 </v>
   <v>       0.07654400       0.15308700       0.16358100 </v>
   <v>       0.32654400       0.65308700       0.16358100 </v>
   <v>       0.07654400       0.84691200       0.16358100 </v>
   <v>       0.32654400       0.34691200       0.16358100 </v>
   <v>       0.17345600       0.31975500       0.26500900 </v>
   <v>       0.42345600       0.81975500       0.26500900 </v>
   <v>       0.15308700       0.66666700       0.26500900 </v>
   <v>       0.40308800       0.16666700       0.26500900 </v>
   <v>       0.17345600       0.01358000       0.26500900 </v>
   <v>       0.42345600       0.51357900       0.26500900 </v>
   <v>       0.67345600       0.98642000       0.06215200 </v>
   <v>       0.92345600       0.48642000       0.06215200 </v>
   <v>       0.59691300       0.50000000       0.16358100 </v>
   <v>       0.84691300       0.00000000       0.16358100 </v>
   <v>       0.65308800       0.33333300       0.06215200 </v>
   <v>       0.90308800       0.83333300       0.06215200 </v>
   <v>       0.67345600       0.68024500       0.06215200 </v>
   <v>       0.92345600       0.18024500       0.06215200 </v>
   <v>       0.57654400       0.15308700       0.16358100 </v>
   <v>       0.82654400       0.65308700       0.16358100 </v>
   <v>       0.57654400       0.84691200       0.16358100 </v>
   <v>       0.82654400       0.34691200       0.16358100 </v>
   <v>       0.67345600       0.31975500       0.26500900 </v>
   <v>       0.92345600       0.81975500       0.26500900 </v>
   <v>       0.65308700       0.66666700       0.26500900 </v>
   <v>       0.90308800       0.16666700       0.26500900 </v>
   <v>       0.67345600       0.01357900       0.26500900 </v>
   <v>       0.92345600       0.51358000       0.26500900 </v>
   <v>       0.48460318       0.32513132       0.37140312 </v>
   <v>       0.00000000       0.66666700       0.20285800 </v>
   <v>       0.25000000       0.16666700       0.20285800 </v>
   <v>       0.00000000       0.33333300       0.12430300 </v>
   <v>       0.25000000       0.83333300       0.12430300 </v>
   <v>       0.00000000       0.00000000       0.10142900 </v>
   <v>       0.25000000       0.50000000       0.10142900 </v>
   <v>       0.00000000       0.66666700       0.02287500 </v>
   <v>       0.25000000       0.16666700       0.02287500 </v>
   <v>       0.99811674       0.33412541       0.27112062 </v>
   <v>       0.25082607       0.83128589       0.26996375 </v>
   <v>       0.00000000       0.00000000       0.22573200 </v>
   <v>       0.25000000       0.50000000       0.22573200 </v>
   <v>       0.00000000       0.33333300       0.00000000 </v>
   <v>       0.25000000       0.83333300       0.00000000 </v>
   <v>       0.50000000       0.66666700       0.20285800 </v>
   <v>       0.75000000       0.16666700       0.20285800 </v>
   <v>       0.50000000       0.33333300       0.12430300 </v>
   <v>       0.75000000       0.83333300       0.12430300 </v>
   <v>       0.50000000       0.00000000       0.10142900 </v>
   <v>       0.75000000       0.50000000       0.10142900 </v>
   <v>       0.50000000       0.66666700       0.02287500 </v>
   <v>       0.75000000       0.16666700       0.02287500 </v>
   <v>       0.50298789       0.33614908       0.29123695 </v>
   <v>       0.74937339       0.83319508       0.27534822 </v>
   <v>       0.50000000       0.00000000       0.22573200 </v>
   <v>       0.75000000       0.50000000       0.22573200 </v>
   <v>       0.50000000       0.33333300       0.00000000 </v>
   <v>       0.75000000       0.83333300       0.00000000 </v>
   <v>       0.26523728       0.16890335       0.37221838 </v>
  </varray>
  <varray name="selective"  type="logical" >
   <v type="logical" >  F  F  F </v>
   <v type="logical" >  F  F  F </v>
   <v type="logical" >  F  F  F </v>
   <v type="logical" >  F  F  F </v>
   <v type="logical" >  F  F  F </v>
   <v type="logical" >  F  F  F </v>
   <v type="logical" >  F  F  F </v>
   <v type="logical" >  F  F  F </v>
   <v type="logical" >  F  F  F </v>
   <v type="logical" >  F  F  F </v>
   <v type="logical" >  F  F  F </v>
   <v type="logical" >  F  F  F </v>
   <v type="logical" >  F  F  F </v>
   <v type="logical" >  F  F  F </v>
   <v type="logical" >  F  F  F </v>
   <v type="logical" >  F  F  F </v>
   <v type="logical" >  F  F  F </v>
   <v type="logical" >  F  F  F </v>
   <v type="logical" >  F  F  F </v>
   <v type="logical" >  F  F  F </v>
   <v type="logical" >  F  F  F </v>
   <v type="logical" >  F  F  F </v>
   <v type="logical" >  F  F  F </v>
   <v type="logical" >  F  F  F </v>
   <v type="logical" >  F  F  F </v>
   <v type="logical" >  F  F  F </v>
   <v type="logical" >  F  F  F </v>
   <v type="logical" >  F  F  F </v>
   <v type="logical" >  F  F  F </v>
   <v type="logical" >  F  F  F </v>
   <v type="logical" >  F  F  F </v>
   <v type="logical" >  F  F  F </v>
   <v type="logical" >  F  F  F </v>
   <v type="logical" >  F  F  F </v>
   <v type="logical" >  F  F  F </v>
   <v type="logical" >  F  F  F </v>
   <v type="logical" >  T  T  T </v>
   <v type="logical" >  F  F  F </v>
   <v type="logical" >  F  F  F </v>
   <v type="logical" >  F  F  F </v>
   <v type="logical" >  F  F  F </v>
   <v type="logical" >  F  F  F </v>
   <v type="logical" >  F  F  F </v>
   <v type="logical" >  F  F  F </v>
   <v type="logical" >  F  F  F </v>
   <v type="logical" >  T  T  T </v>
   <v type="logical" >  T  T  T </v>
   <v type="logical" >  F  F  F </v>
   <v type="logical" >  F  F  F </v>
   <v type="logical" >  F  F  F </v>
   <v type="logical" >  F  F  F </v>
   <v type="logical" >  F  F  F </v>
   <v type="logical" >  F  F  F </v>
   <v type="logical" >  F  F  F </v>
   <v type="logical" >  F  F  F </v>
   <v type="logical" >  F  F  F </v>
   <v type="logical" >  F  F  F </v>
   <v type="logical" >  F  F  F </v>
   <v type="logical" >  F  F  F </v>
   <v type="logical" >  T  T  T </v>
   <v type="logical" >  T  T  T </v>
   <v type="logical" >  F  F  F </v>
   <v type="logical" >  F  F  F </v>
   <v type="logical" >  F  F  F </v>
   <v type="logical" >  F  F  F </v>
   <v type="logical" >  T  T  T </v>
  </varray>
  <nose>
   <v>      -3.00000000       0.00000000       0.00010000       0.00010000 </v>
  </nose>
 </structure>
</modeling>
