  96  96   0   0
  0.2021310E+02  0.9284250E-09  0.1072053E-08  0.1949580E-08  0.5000000E-15
  1.000000000000000E-004
  CAR 
 ni3al                                   
      7.04386605    -15.20604510  301      1.47346861      1.00000000
    -15.206  0.0000E+00  0.0000E+00
    -15.132  0.0000E+00  0.0000E+00
    -15.058  0.0000E+00  0.0000E+00
    -14.984  0.0000E+00  0.0000E+00
    -14.909  0.0000E+00  0.0000E+00
    -14.835  0.0000E+00  0.0000E+00
    -14.761  0.4158E-17  0.3084E-18
    -14.687  0.1268E-13  0.9407E-15
    -14.613  0.1267E-10  0.9403E-12
    -14.539  0.4326E-08  0.3218E-09
    -14.464  0.5109E-06  0.3821E-07
    -14.390  0.2129E-04  0.1617E-05
    -14.316  0.3281E-03  0.2595E-04
    -14.242  0.2096E-02  0.1814E-03
    -14.168  0.6907E-02  0.6937E-03
    -14.094  0.1417E-01  0.1745E-02
    -14.019  0.1900E-01  0.3154E-02
    -13.945  0.1717E-01  0.4427E-02
    -13.871  0.1214E-01  0.5327E-02
    -13.797  0.1374E-01  0.6347E-02
    -13.723  0.2248E-01  0.8014E-02
    -13.649  0.2601E-01  0.9943E-02
    -13.574  0.1711E-01  0.1121E-01
    -13.500  0.8028E-02  0.1181E-01
    -13.426  0.1259E-01  0.1274E-01
    -13.352  0.2494E-01  0.1459E-01
    -13.278  0.3007E-01  0.1682E-01
    -13.204  0.3007E-01  0.1905E-01
    -13.129  0.3324E-01  0.2152E-01
    -13.055  0.3537E-01  0.2414E-01
    -12.981  0.3218E-01  0.2653E-01
    -12.907  0.3431E-01  0.2907E-01
    -12.833  0.4546E-01  0.3244E-01
    -12.759  0.4983E-01  0.3614E-01
    -12.684  0.3507E-01  0.3874E-01
    -12.610  0.1898E-01  0.4015E-01
    -12.536  0.2060E-01  0.4167E-01
    -12.462  0.3619E-01  0.4436E-01
    -12.388  0.5097E-01  0.4814E-01
    -12.314  0.4982E-01  0.5183E-01
    -12.239  0.3736E-01  0.5460E-01
    -12.165  0.3026E-01  0.5685E-01
    -12.091  0.3705E-01  0.5960E-01
    -12.017  0.5090E-01  0.6337E-01
    -11.943  0.5982E-01  0.6781E-01
    -11.869  0.5980E-01  0.7224E-01
    -11.794  0.4903E-01  0.7588E-01
    -11.720  0.4110E-01  0.7893E-01
    -11.646  0.5251E-01  0.8282E-01
    -11.572  0.7094E-01  0.8808E-01
    -11.498  0.7388E-01  0.9356E-01
    -11.424  0.5370E-01  0.9755E-01
    -11.349  0.4261E-01  0.1007E+00
    -11.275  0.7248E-01  0.1061E+00
    -11.201  0.1041E+00  0.1138E+00
    -11.127  0.8517E-01  0.1201E+00
    -11.053  0.5738E-01  0.1244E+00
    -10.979  0.6059E-01  0.1289E+00
    -10.904  0.7162E-01  0.1342E+00
    -10.830  0.7695E-01  0.1399E+00
    -10.756  0.7692E-01  0.1456E+00
    -10.682  0.6574E-01  0.1505E+00
    -10.608  0.6690E-01  0.1554E+00
    -10.534  0.9785E-01  0.1627E+00
    -10.459  0.1193E+00  0.1715E+00
    -10.385  0.9578E-01  0.1786E+00
    -10.311  0.6315E-01  0.1833E+00
    -10.237  0.5592E-01  0.1875E+00
    -10.163  0.6251E-01  0.1921E+00
    -10.089  0.6862E-01  0.1972E+00
    -10.014  0.7583E-01  0.2028E+00
     -9.940  0.8501E-01  0.2091E+00
     -9.866  0.9241E-01  0.2160E+00
     -9.792  0.9393E-01  0.2229E+00
     -9.718  0.8994E-01  0.2296E+00
     -9.644  0.7457E-01  0.2351E+00
     -9.569  0.4683E-01  0.2386E+00
     -9.495  0.1613E-01  0.2398E+00
     -9.421  0.2394E-02  0.2400E+00
     -9.347  0.1383E-03  0.2400E+00
     -9.273  0.2971E-05  0.2400E+00
     -9.199  0.3770E-07  0.2400E+00
     -9.124  0.1388E-05  0.2400E+00
     -9.050  0.4835E-04  0.2400E+00
     -8.976  0.6683E-03  0.2401E+00
     -8.902  0.4128E-02  0.2404E+00
     -8.828  0.1290E-01  0.2413E+00
     -8.754  0.2207E-01  0.2430E+00
     -8.679  0.2306E-01  0.2447E+00
     -8.605  0.2311E-01  0.2464E+00
     -8.531  0.3036E-01  0.2486E+00
     -8.457  0.2952E-01  0.2508E+00
     -8.383  0.2434E-01  0.2526E+00
     -8.309  0.3077E-01  0.2549E+00
     -8.234  0.3419E-01  0.2574E+00
     -8.160  0.3757E-01  0.2602E+00
     -8.086  0.5777E-01  0.2645E+00
     -8.012  0.1047E+00  0.2723E+00
     -7.938  0.1749E+00  0.2852E+00
     -7.864  0.2206E+00  0.3016E+00
     -7.789  0.1757E+00  0.3146E+00
     -7.715  0.8558E-01  0.3210E+00
     -7.641  0.3383E-01  0.3235E+00
     -7.567  0.1712E-01  0.3248E+00
     -7.493  0.1232E-01  0.3257E+00
     -7.419  0.1767E-01  0.3270E+00
     -7.344  0.2770E-01  0.3290E+00
     -7.270  0.3117E-01  0.3314E+00
     -7.196  0.2874E-01  0.3335E+00
     -7.122  0.3698E-01  0.3362E+00
     -7.048  0.5799E-01  0.3405E+00
     -6.974  0.5844E-01  0.3449E+00
     -6.899  0.4305E-01  0.3481E+00
     -6.825  0.4097E-01  0.3511E+00
     -6.751  0.5021E-01  0.3548E+00
     -6.677  0.6824E-01  0.3599E+00
     -6.603  0.9377E-01  0.3668E+00
     -6.529  0.8887E-01  0.3734E+00
     -6.454  0.7891E-01  0.3793E+00
     -6.380  0.9193E-01  0.3861E+00
     -6.306  0.8978E-01  0.3928E+00
     -6.232  0.8153E-01  0.3988E+00
     -6.158  0.9175E-01  0.4056E+00
     -6.084  0.1001E+00  0.4130E+00
     -6.009  0.1029E+00  0.4207E+00
     -5.935  0.9804E-01  0.4279E+00
     -5.861  0.6885E-01  0.4330E+00
     -5.787  0.5588E-01  0.4372E+00
     -5.713  0.5583E-01  0.4413E+00
     -5.639  0.4376E-01  0.4446E+00
     -5.564  0.4900E-01  0.4482E+00
     -5.490  0.7072E-01  0.4535E+00
     -5.416  0.9540E-01  0.4605E+00
     -5.342  0.1091E+00  0.4686E+00
     -5.268  0.1110E+00  0.4769E+00
     -5.194  0.1159E+00  0.4854E+00
     -5.119  0.1092E+00  0.4935E+00
     -5.045  0.8450E-01  0.4998E+00
     -4.971  0.1001E+00  0.5072E+00
     -4.897  0.1364E+00  0.5174E+00
     -4.823  0.1423E+00  0.5279E+00
     -4.749  0.1437E+00  0.5386E+00
     -4.674  0.1355E+00  0.5486E+00
     -4.600  0.1010E+00  0.5561E+00
     -4.526  0.7323E-01  0.5615E+00
     -4.452  0.7284E-01  0.5669E+00
     -4.378  0.8469E-01  0.5732E+00
     -4.304  0.7944E-01  0.5791E+00
     -4.229  0.6523E-01  0.5840E+00
     -4.155  0.6243E-01  0.5886E+00
     -4.081  0.6085E-01  0.5931E+00
     -4.007  0.6016E-01  0.5976E+00
     -3.933  0.5208E-01  0.6014E+00
     -3.859  0.5592E-01  0.6056E+00
     -3.784  0.5926E-01  0.6100E+00
     -3.710  0.4434E-01  0.6133E+00
     -3.636  0.4130E-01  0.6163E+00
     -3.562  0.5077E-01  0.6201E+00
     -3.488  0.6086E-01  0.6246E+00
     -3.414  0.8110E-01  0.6306E+00
     -3.339  0.1009E+00  0.6381E+00
     -3.265  0.1475E+00  0.6490E+00
     -3.191  0.2031E+00  0.6641E+00
     -3.117  0.2204E+00  0.6804E+00
     -3.043  0.1791E+00  0.6937E+00
     -2.969  0.1284E+00  0.7033E+00
     -2.894  0.1441E+00  0.7139E+00
     -2.820  0.1599E+00  0.7258E+00
     -2.746  0.1175E+00  0.7345E+00
     -2.672  0.7622E-01  0.7402E+00
     -2.598  0.6257E-01  0.7448E+00
     -2.524  0.6839E-01  0.7499E+00
     -2.449  0.9860E-01  0.7572E+00
     -2.375  0.1230E+00  0.7663E+00
     -2.301  0.1184E+00  0.7751E+00
     -2.227  0.1273E+00  0.7845E+00
     -2.153  0.1501E+00  0.7957E+00
     -2.079  0.1526E+00  0.8070E+00
     -2.004  0.1277E+00  0.8165E+00
     -1.930  0.1194E+00  0.8253E+00
     -1.856  0.1462E+00  0.8362E+00
     -1.782  0.1497E+00  0.8473E+00
     -1.708  0.1328E+00  0.8571E+00
     -1.634  0.1387E+00  0.8674E+00
     -1.559  0.1621E+00  0.8794E+00
     -1.485  0.2002E+00  0.8943E+00
     -1.411  0.2199E+00  0.9106E+00
     -1.337  0.1788E+00  0.9238E+00
     -1.263  0.1152E+00  0.9324E+00
     -1.189  0.9632E-01  0.9395E+00
     -1.114  0.1114E+00  0.9478E+00
     -1.040  0.1033E+00  0.9555E+00
     -0.966  0.9024E-01  0.9621E+00
     -0.892  0.1118E+00  0.9704E+00
     -0.818  0.1415E+00  0.9809E+00
     -0.744  0.1709E+00  0.9936E+00
     -0.669  0.2215E+00  0.1010E+01
     -0.595  0.2498E+00  0.1029E+01
     -0.521  0.2139E+00  0.1044E+01
     -0.447  0.1535E+00  0.1056E+01
     -0.373  0.1373E+00  0.1066E+01
     -0.299  0.1438E+00  0.1077E+01
     -0.224  0.1151E+00  0.1085E+01
     -0.150  0.7540E-01  0.1091E+01
     -0.076  0.6057E-01  0.1095E+01
     -0.002  0.6778E-01  0.1100E+01
      0.072  0.6631E-01  0.1105E+01
      0.146  0.6319E-01  0.1110E+01
      0.221  0.7947E-01  0.1116E+01
      0.295  0.1103E+00  0.1124E+01
      0.369  0.1361E+00  0.1134E+01
      0.443  0.1400E+00  0.1144E+01
      0.517  0.1526E+00  0.1156E+01
      0.591  0.1686E+00  0.1168E+01
      0.666  0.1719E+00  0.1181E+01
      0.740  0.1683E+00  0.1194E+01
      0.814  0.1679E+00  0.1206E+01
      0.888  0.1594E+00  0.1218E+01
      0.962  0.1202E+00  0.1227E+01
      1.036  0.9309E-01  0.1234E+01
      1.111  0.1157E+00  0.1242E+01
      1.185  0.1519E+00  0.1253E+01
      1.259  0.1417E+00  0.1264E+01
      1.333  0.9260E-01  0.1271E+01
      1.407  0.6296E-01  0.1276E+01
      1.481  0.6856E-01  0.1281E+01
      1.556  0.8273E-01  0.1287E+01
      1.630  0.7550E-01  0.1292E+01
      1.704  0.6895E-01  0.1297E+01
      1.778  0.7572E-01  0.1303E+01
      1.852  0.7410E-01  0.1309E+01
      1.926  0.6636E-01  0.1313E+01
      2.001  0.6862E-01  0.1319E+01
      2.075  0.6742E-01  0.1324E+01
      2.149  0.5972E-01  0.1328E+01
      2.223  0.4639E-01  0.1331E+01
      2.297  0.3476E-01  0.1334E+01
      2.371  0.4250E-01  0.1337E+01
      2.446  0.6817E-01  0.1342E+01
      2.520  0.8461E-01  0.1349E+01
      2.594  0.6126E-01  0.1353E+01
      2.668  0.3486E-01  0.1356E+01
      2.742  0.3312E-01  0.1358E+01
      2.816  0.3867E-01  0.1361E+01
      2.891  0.6459E-01  0.1366E+01
      2.965  0.9334E-01  0.1373E+01
      3.039  0.9245E-01  0.1380E+01
      3.113  0.9558E-01  0.1387E+01
      3.187  0.1221E+00  0.1396E+01
      3.261  0.1355E+00  0.1406E+01
      3.336  0.1133E+00  0.1414E+01
      3.410  0.9563E-01  0.1421E+01
      3.484  0.9078E-01  0.1428E+01
      3.558  0.7775E-01  0.1434E+01
      3.632  0.7915E-01  0.1440E+01
      3.706  0.9665E-01  0.1447E+01
      3.781  0.8765E-01  0.1453E+01
      3.855  0.6844E-01  0.1458E+01
      3.929  0.6605E-01  0.1463E+01
      4.003  0.5770E-01  0.1468E+01
      4.077  0.4475E-01  0.1471E+01
      4.151  0.3904E-01  0.1474E+01
      4.226  0.2906E-01  0.1476E+01
      4.300  0.1851E-01  0.1477E+01
      4.374  0.1806E-01  0.1479E+01
      4.448  0.3950E-01  0.1482E+01
      4.522  0.6636E-01  0.1486E+01
      4.596  0.8771E-01  0.1493E+01
      4.671  0.1273E+00  0.1502E+01
      4.745  0.1423E+00  0.1513E+01
      4.819  0.1075E+00  0.1521E+01
      4.893  0.6755E-01  0.1526E+01
      4.967  0.4420E-01  0.1529E+01
      5.041  0.4423E-01  0.1532E+01
      5.116  0.7145E-01  0.1538E+01
      5.190  0.8698E-01  0.1544E+01
      5.264  0.7756E-01  0.1550E+01
      5.338  0.6651E-01  0.1555E+01
      5.412  0.6143E-01  0.1559E+01
      5.486  0.7499E-01  0.1565E+01
      5.561  0.9474E-01  0.1572E+01
      5.635  0.9981E-01  0.1579E+01
      5.709  0.9698E-01  0.1587E+01
      5.783  0.8208E-01  0.1593E+01
      5.857  0.6354E-01  0.1597E+01
      5.931  0.5766E-01  0.1602E+01
      6.006  0.4256E-01  0.1605E+01
      6.080  0.1835E-01  0.1606E+01
      6.154  0.4779E-02  0.1607E+01
      6.228  0.6880E-03  0.1607E+01
      6.302  0.4330E-04  0.1607E+01
      6.376  0.1028E-05  0.1607E+01
      6.451  0.8673E-08  0.1607E+01
      6.525  0.2535E-10  0.1607E+01
      6.599  0.2537E-13  0.1607E+01
      6.673  0.8316E-17  0.1607E+01
      6.747  0.0000E+00  0.1607E+01
      6.821  0.0000E+00  0.1607E+01
      6.896  0.0000E+00  0.1607E+01
      6.970  0.0000E+00  0.1607E+01
      7.044  0.0000E+00  0.1607E+01
