       N       E                     dE             d eps       ncg     rms          rms(c)
DAV:   1     0.202343348361E+04    0.20234E+04   -0.16034E+05  2892   0.135E+03
DAV:   2    -0.389451947311E+03   -0.24129E+04   -0.22993E+04  3653   0.261E+02
DAV:   3    -0.695963769071E+03   -0.30651E+03   -0.29989E+03  3792   0.870E+01
DAV:   4    -0.713637629902E+03   -0.17674E+02   -0.17539E+02  4032   0.221E+01
DAV:   5    -0.714218303283E+03   -0.58067E+00   -0.57943E+00  3968   0.371E+00    0.447E+01
RMM:   6    -0.636180300072E+03    0.78038E+02   -0.24307E+02  2904   0.212E+01    0.161E+01
RMM:   7    -0.637991175372E+03   -0.18109E+01   -0.86746E+01  3079   0.139E+01    0.108E+01
RMM:   8    -0.636671524807E+03    0.13197E+01   -0.12012E+01  3160   0.551E+00    0.723E+00
RMM:   9    -0.636481967719E+03    0.18956E+00   -0.80009E+00  3005   0.427E+00    0.312E+00
RMM:  10    -0.635977393056E+03    0.50457E+00   -0.78687E-01  2981   0.165E+00    0.147E+00
RMM:  11    -0.635969848113E+03    0.75449E-02   -0.14024E+00  3026   0.161E+00    0.861E-01
RMM:  12    -0.635951149530E+03    0.18699E-01   -0.23160E-01  2929   0.786E-01    0.348E-01
RMM:  13    -0.635955760342E+03   -0.46108E-02   -0.88291E-02  3785   0.396E-01    0.310E-01
RMM:  14    -0.635965413433E+03   -0.96531E-02   -0.18349E-02  3035   0.184E-01    0.201E-01
RMM:  15    -0.635976656475E+03   -0.11243E-01   -0.75588E-02  3103   0.366E-01    0.397E-01
RMM:  16    -0.635972088586E+03    0.45679E-02   -0.46390E-02  3071   0.285E-01    0.101E-01
RMM:  17    -0.635973210630E+03   -0.11220E-02   -0.29450E-03  2966   0.969E-02    0.548E-02
RMM:  18    -0.635974966152E+03   -0.17555E-02   -0.22771E-03  2998   0.610E-02    0.369E-02
RMM:  19    -0.635976047949E+03   -0.10818E-02   -0.18411E-03  3233   0.483E-02    0.469E-02
RMM:  20    -0.635976738834E+03   -0.69088E-03   -0.66337E-04  3168   0.365E-02    0.588E-02
RMM:  21    -0.635976813428E+03   -0.74594E-04   -0.53189E-04  2929   0.319E-02    0.125E-02
RMM:  22    -0.635976996518E+03   -0.18309E-03   -0.61374E-04  3321   0.332E-02    0.314E-02
RMM:  23    -0.635976976308E+03    0.20210E-04   -0.55728E-05  2910   0.124E-02    0.172E-02
RMM:  24    -0.635976986589E+03   -0.10281E-04   -0.10261E-04  2968   0.136E-02    0.110E-03
RMM:  25    -0.635976994061E+03   -0.74720E-05   -0.16061E-05  3146   0.631E-03    0.366E-03
RMM:  26    -0.635976996370E+03   -0.23085E-05   -0.11417E-06  1769   0.189E-03    0.349E-03
RMM:  27    -0.635976997831E+03   -0.14617E-05   -0.24273E-06  1911   0.209E-03    0.319E-04
RMM:  28    -0.635976997957E+03   -0.12580E-06   -0.52353E-07  1659   0.125E-03
   1 F= -.63597700E+03 E0= -.63592002E+03  d E =-.635977E+03
       N       E                     dE             d eps       ncg     rms          rms(c)
DAV:   1    -0.635979556378E+03   -0.25585E-02   -0.51441E-02  3216   0.338E-01    0.584E-02
RMM:   2    -0.635979715884E+03   -0.15951E-03   -0.39010E-03  3010   0.106E-01    0.458E-02
RMM:   3    -0.635979761785E+03   -0.45901E-04   -0.14021E-03  3461   0.497E-02    0.371E-02
RMM:   4    -0.635979747515E+03    0.14270E-04   -0.12585E-04  3170   0.201E-02    0.206E-02
RMM:   5    -0.635979752787E+03   -0.52718E-05   -0.11878E-04  3151   0.159E-02    0.109E-02
RMM:   6    -0.635979741087E+03    0.11700E-04   -0.21353E-05  2821   0.724E-03    0.701E-03
RMM:   7    -0.635979740599E+03    0.48707E-06   -0.43716E-05  2905   0.727E-03    0.561E-03
RMM:   8    -0.635979742883E+03   -0.22836E-05   -0.48430E-06  2143   0.355E-03    0.133E-03
RMM:   9    -0.635979749551E+03   -0.66676E-05   -0.71588E-06  2320   0.307E-03    0.297E-03
RMM:  10    -0.635979758910E+03   -0.93594E-05   -0.34509E-06  1964   0.225E-03    0.104E-03
RMM:  11    -0.635979767393E+03   -0.84824E-05   -0.18810E-06  1883   0.171E-03    0.178E-03
RMM:  12    -0.635979779648E+03   -0.12255E-04   -0.19240E-06  1750   0.132E-03    0.480E-04
RMM:  13    -0.635979782365E+03   -0.27177E-05   -0.82466E-07  1676   0.116E-03    0.780E-04
RMM:  14    -0.635979782953E+03   -0.58807E-06   -0.18754E-07  1237   0.615E-04
   2 F= -.63597978E+03 E0= -.63592293E+03  d E =-.278500E-02
       N       E                     dE             d eps       ncg     rms          rms(c)
DAV:   1    -0.635980039545E+03   -0.25718E-03   -0.11564E-02  3197   0.161E-01    0.277E-02
RMM:   2    -0.635980076127E+03   -0.36583E-04   -0.86751E-04  3008   0.506E-02    0.219E-02
RMM:   3    -0.635980085028E+03   -0.89006E-05   -0.32208E-04  3462   0.238E-02    0.182E-02
RMM:   4    -0.635980080987E+03    0.40409E-05   -0.27032E-05  3039   0.946E-03    0.103E-02
RMM:   5    -0.635980081776E+03   -0.78910E-06   -0.31798E-05  2976   0.812E-03    0.564E-03
RMM:   6    -0.635980078118E+03    0.36576E-05   -0.51334E-06  2284   0.369E-03    0.368E-03
RMM:   7    -0.635980077499E+03    0.61896E-06   -0.10671E-05  2586   0.354E-03    0.260E-03
RMM:   8    -0.635980078671E+03   -0.11715E-05   -0.11545E-06  1732   0.170E-03    0.593E-04
RMM:   9    -0.635980081301E+03   -0.26301E-05   -0.14717E-06  1731   0.139E-03    0.136E-03
RMM:  10    -0.635980086905E+03   -0.56042E-05   -0.69100E-07  1575   0.102E-03    0.392E-04
RMM:  11    -0.635980090357E+03   -0.34517E-05   -0.70516E-07  1585   0.982E-04    0.864E-04
RMM:  12    -0.635980092348E+03   -0.19916E-05   -0.49013E-07  1452   0.781E-04    0.203E-04
RMM:  13    -0.635980092562E+03   -0.21349E-06   -0.84775E-08   910   0.513E-04
   3 F= -.63598009E+03 E0= -.63592330E+03  d E =-.309460E-02
