 vasp.6.3.2 27Jun22 (build Mar 15 2023 15:45:48) complex                        
  
 executed on             LinuxIFC date 2024.07.14  22:54:02
 running on    4 total cores
 distrk:  each k-point on    1 cores,    4 groups
 distr:  one band on NCORE=   1 cores,    1 groups


--------------------------------------------------------------------------------------------------------


 INCAR:
   SYSTEM = ni3al
   PREC = Accurate
   EDIFF = 1E-6
   EDIFFG = -1E-2
   ISTART = 0
   ICHARG = 2
   LREAL = Auto
   NSW = 300
   ISIF = 2
   IBRION = 2
   ISMEAR = 0
   SIGMA = 0.1
   ENCUT = 530
   ALGO = Fast
   LMAXMIX = 4
   AMIN = 0.01
   NELM = 150
   LCHARG = .FALSE.
   LWAVE = .FALSE.
   KPAR = 8

 POTCAR:   PAW_PBE C 08Apr2002                    
 POTCAR:   PAW_PBE Si 05Jan2001                   
 POTCAR:   PAW_PBE C 08Apr2002                    
   VRHFIN =C: s2p2                                                                                  
   LEXCH  = PE                                                                                      
   EATOM  =   147.1560 eV,   10.8157 Ry                                                             
                                                                                                    
   TITEL  = PAW_PBE C 08Apr2002                                                                     
   LULTRA =        F    use ultrasoft PP ?                                                          
   IUNSCR =        0    unscreen: 0-lin 1-nonlin 2-no                                               
   RPACOR =     .000    partial core radius                                                         
   POMASS =   12.011; ZVAL   =    4.000    mass and valenz                                          
   RCORE  =    1.500    outmost cutoff radius                                                       
   RWIGS  =    1.630; RWIGS  =     .863    wigner-seitz radius (au A)                               
   ENMAX  =  400.000; ENMIN  =  300.000 eV                                                          
   ICORE  =        2    local potential                                                             
   LCOR   =        T    correct aug charges                                                         
   LPAW   =        T    paw PP                                                                      
   EAUG   =  644.873                                                                                
   DEXC   =     .000                                                                                
   RMAX   =    2.266    core radius for proj-oper                                                   
   RAUG   =    1.300    factor for augmentation sphere                                              
   RDEP   =    1.501    radius for radial grids                                                     
   RDEPT  =    1.300    core radius for aug-charge                                                  
   QCUT   =   -5.516; QGAM   =   11.032    optimization parameters                                  
                                                                                                    
   Description                                                                                      
     l     E      TYP  RCUT    TYP  RCUT                                                            
     0   .000     23  1.200                                                                         
     0   .000     23  1.200                                                                         
     1   .000     23  1.500                                                                         
     1  2.500     23  1.500                                                                         
     2   .000      7  1.500                                                                         
  local pseudopotential read in
  atomic valenz-charges read in
  non local Contribution for L=           0  read in
    real space projection operators read in
  non local Contribution for L=           0  read in
    real space projection operators read in
  non local Contribution for L=           1  read in
    real space projection operators read in
  non local Contribution for L=           1  read in
    real space projection operators read in
    PAW grid and wavefunctions read in
 
   number of l-projection  operators is LMAX  =           4
   number of lm-projection operators is LMMAX =           8
 
 POTCAR:   PAW_PBE Si 05Jan2001                   
   VRHFIN =Si: s2p2                                                                                 
   LEXCH  = PE                                                                                      
   EATOM  =   103.0669 eV,    7.5752 Ry                                                             
                                                                                                    
   TITEL  = PAW_PBE Si 05Jan2001                                                                    
   LULTRA =        F    use ultrasoft PP ?                                                          
   IUNSCR =        1    unscreen: 0-lin 1-nonlin 2-no                                               
   RPACOR =    1.500    partial core radius                                                         
   POMASS =   28.085; ZVAL   =    4.000    mass and valenz                                          
   RCORE  =    1.900    outmost cutoff radius                                                       
   RWIGS  =    2.480; RWIGS  =    1.312    wigner-seitz radius (au A)                               
   ENMAX  =  245.345; ENMIN  =  184.009 eV                                                          
   ICORE  =        2    local potential                                                             
   LCOR   =        T    correct aug charges                                                         
   LPAW   =        T    paw PP                                                                      
   EAUG   =  322.069                                                                                
   DEXC   =    -.007                                                                                
   RMAX   =    2.944    core radius for proj-oper                                                   
   RAUG   =    1.300    factor for augmentation sphere                                              
   RDEP   =    1.993    radius for radial grids                                                     
   QCUT   =   -4.246; QGAM   =    8.493    optimization parameters                                  
                                                                                                    
   Description                                                                                      
     l     E      TYP  RCUT    TYP  RCUT                                                            
     0   .000     23  1.900                                                                         
     0   .000     23  1.900                                                                         
     1   .000     23  1.900                                                                         
     1   .000     23  1.900                                                                         
     2   .000      7  1.900                                                                         
  local pseudopotential read in
  partial core-charges read in
  atomic valenz-charges read in
  non local Contribution for L=           0  read in
    real space projection operators read in
  non local Contribution for L=           0  read in
    real space projection operators read in
  non local Contribution for L=           1  read in
    real space projection operators read in
  non local Contribution for L=           1  read in
    real space projection operators read in
    PAW grid and wavefunctions read in
 
   number of l-projection  operators is LMAX  =           4
   number of lm-projection operators is LMMAX =           8
 
 Optimization of the real space projectors (new method)

 maximal supplied QI-value         = 25.13
 optimisation between [QCUT,QGAM] = [ 11.56, 23.37] = [ 37.43,152.99] Ry 
 Optimized for a Real-space Cutoff    1.07 Angstroem

   l    n(q)    QCUT    max X(q) W(low)/X(q) W(high)/X(q)  e(spline) 
   0      7    11.561     5.582    0.43E-04    0.82E-04    0.19E-07
   0      7    11.561    69.432    0.18E-03    0.47E-03    0.23E-06
   1      7    11.561     2.780    0.18E-04    0.55E-04    0.48E-07
   1      7    11.561     4.549    0.18E-03    0.21E-03    0.13E-06
 Optimization of the real space projectors (new method)

 maximal supplied QI-value         = 19.84
 optimisation between [QCUT,QGAM] = [ 11.71, 23.41] = [ 38.38,153.51] Ry 
 Optimized for a Real-space Cutoff    1.20 Angstroem

   l    n(q)    QCUT    max X(q) W(low)/X(q) W(high)/X(q)  e(spline) 
   0      8    11.707     8.708    0.17E-04    0.67E-05    0.45E-08
   0      8    11.707   106.241    0.59E-04    0.18E-03    0.53E-07
   1      8    11.707     5.901    0.60E-05    0.19E-04    0.21E-07
   1      8    11.707    73.241    0.22E-03    0.21E-04    0.75E-07
 PAW_PBE C 08Apr2002                    :
 energy of atom  1       EATOM= -147.1560
 kinetic energy error for atom=    0.0069 (will be added to EATOM!!)
 PAW_PBE Si 05Jan2001                   :
 energy of atom  2       EATOM= -103.0669
 kinetic energy error for atom=    0.0005 (will be added to EATOM!!)
 
 
 POSCAR: POSCAR
  positions in direct lattice
  No initial velocities read in
 exchange correlation table for  LEXCH =        8
   RHO(1)=    0.500       N(1)  =     2000
   RHO(2)=  100.500       N(2)  =     4000

 VTST: version 4.2, (08/11/21)

 CHAIN: initializing optimizer
 
 OPT: Using VASP Conjugate-Gradient optimizer
 CHAIN: Read ICHAIN            0
 
 POSCAR: POSCAR
  positions in direct lattice
  No initial velocities read in
 


--------------------------------------------------------------------------------------------------------


 ion  position               nearest neighbor table
   1  0.000  0.000  0.000-  49 1.90
   2  0.167  0.250  0.000-  50 1.90
   3  0.000  0.000  0.389-  79 1.89  56 1.89  72 1.89  51 1.90
   4  0.167  0.250  0.389-  63 1.89  56 1.89  55 1.89  52 1.90
   5  0.000  0.167  0.130-  49 1.90  50 1.90  66 1.90  53 1.90
   6  0.167  0.417  0.130-  50 1.90  81 1.90  73 1.90  54 1.90
   7  0.000  0.333  0.260-  54 1.89  70 1.89  53 1.89  55 1.90
   8  0.167  0.083  0.260-  61 1.89  53 1.89  78 1.89  56 1.90
   9  0.333  0.000  0.000-  57 1.90
  10  0.500  0.250  0.000-  58 1.90
  11  0.333  0.000  0.389-  87 1.89  56 1.89  64 1.89  59 1.90
  12  0.500  0.250  0.389-  64 1.89  63 1.89  71 1.89  60 1.90
  13  0.333  0.167  0.130-  57 1.90  50 1.90  58 1.90  61 1.90
  14  0.500  0.417  0.130-  58 1.90  81 1.90  89 1.90  62 1.90
  15  0.333  0.333  0.260-  54 1.89  62 1.89  61 1.89  63 1.90
  16  0.500  0.083  0.260-  86 1.89  69 1.89  61 1.89  64 1.90
  17  0.667  0.000  0.000-  65 1.90
  18  0.833  0.250  0.000-  66 1.90
  19  0.667  0.000  0.389-  95 1.89  72 1.89  64 1.89  67 1.90
  20  0.833  0.250  0.389-  72 1.89  71 1.89  55 1.89  68 1.90
  21  0.667  0.167  0.130-  65 1.90  66 1.90  58 1.90  69 1.90
  22  0.833  0.417  0.130-  66 1.90  89 1.90  73 1.90  70 1.90
  23  0.667  0.333  0.260-  70 1.89  62 1.89  69 1.89  71 1.90
  24  0.833  0.083  0.260-  69 1.89  53 1.89  94 1.89  72 1.90
  25  0.000  0.500  0.000-  73 1.90
  26  0.167  0.750  0.000-  74 1.90
  27  0.000  0.500  0.389-  55 1.89  80 1.89  96 1.89  75 1.90
  28  0.167  0.750  0.389-  80 1.89  87 1.89  79 1.89  76 1.90
  29  0.000  0.667  0.130-  73 1.90  74 1.90  90 1.90  77 1.90
  30  0.167  0.917  0.130-  74 1.90  57 1.90  49 1.90  78 1.90
  31  0.000  0.833  0.260-  78 1.89  94 1.89  77 1.89  79 1.90
  32  0.167  0.583  0.260-  85 1.89  77 1.89  54 1.89  80 1.90
  33  0.333  0.500  0.000-  81 1.90
  34  0.500  0.750  0.000-  82 1.90
  35  0.333  0.500  0.389-  63 1.89  80 1.89  88 1.89  83 1.90
  36  0.500  0.750  0.389-  88 1.89  87 1.89  95 1.89  84 1.90
  37  0.333  0.667  0.130-  81 1.90  74 1.90  82 1.90  85 1.90
  38  0.500  0.917  0.130-  57 1.90  65 1.90  82 1.90  86 1.90
  39  0.333  0.833  0.260-  78 1.89  86 1.89  85 1.89  87 1.90
  40  0.500  0.583  0.260-  85 1.89  93 1.89  62 1.89  88 1.90
  41  0.667  0.500  0.000-  89 1.90
  42  0.833  0.750  0.000-  90 1.90
  43  0.667  0.500  0.389-  71 1.89  96 1.89  88 1.89  91 1.90
  44  0.833  0.750  0.389-  96 1.89  95 1.89  79 1.89  92 1.90
  45  0.667  0.667  0.130-  89 1.90  90 1.90  82 1.90  93 1.90
  46  0.833  0.917  0.130-  65 1.90  49 1.90  90 1.90  94 1.90
  47  0.667  0.833  0.260-  94 1.89  86 1.89  93 1.89  95 1.90
  48  0.833  0.583  0.260-  93 1.89  77 1.89  70 1.89  96 1.90
  49  0.000  0.000  0.098-   5 1.90  46 1.90  30 1.90   1 1.90  57 3.09  65 3.09  50 3.09  66 3.09
                            74 3.09  90 3.09  53 3.10  94 3.10  78 3.10
  50  0.167  0.250  0.098-   6 1.90  13 1.90   5 1.90   2 1.90  57 3.09  81 3.09  58 3.09  73 3.09
                            49 3.09  66 3.09  54 3.10  61 3.10  53 3.10
  51  0.000  0.000  0.487-   3 1.90  59 3.09  67 3.09  52 3.09  68 3.09  76 3.09  92 3.09  79 3.10
                            56 3.10  72 3.10
  52  0.167  0.250  0.487-   4 1.90  59 3.09  83 3.09  60 3.09  75 3.09  51 3.09  68 3.09  63 3.10
                            56 3.10  55 3.10
  53  0.000  0.167  0.228-  24 1.89   8 1.89   7 1.89   5 1.90  94 3.09  69 3.09  61 3.09  70 3.09
                            78 3.09  54 3.09  72 3.10  56 3.10  55 3.10  49 3.10  66 3.10  50 3.10
  54  0.167  0.417  0.228-  15 1.89   7 1.89  32 1.89   6 1.90  61 3.09  85 3.09  62 3.09  77 3.09
                            53 3.09  70 3.09  63 3.10  55 3.10  80 3.10  50 3.10  81 3.10  73 3.10
  55  0.000  0.333  0.357-  27 1.89  20 1.89   4 1.89   7 1.90  63 3.09  71 3.09  72 3.09  80 3.09
                            96 3.09  56 3.09  54 3.10  70 3.10  53 3.10  75 3.10  52 3.10  68 3.10
  56  0.167  0.083  0.357-  11 1.89   3 1.89   4 1.89   8 1.90  87 3.09  79 3.09  64 3.09  63 3.09
                            72 3.09  55 3.09  61 3.10  53 3.10  78 3.10  59 3.10  51 3.10  52 3.10
  57  0.333  0.000  0.098-  13 1.90  30 1.90  38 1.90   9 1.90  50 3.09  74 3.09  49 3.09  58 3.09
                            82 3.09  65 3.09  61 3.10  78 3.10  86 3.10
  58  0.500  0.250  0.098-  14 1.90  13 1.90  21 1.90  10 1.90  50 3.09  66 3.09  65 3.09  57 3.09
                            81 3.09  89 3.09  62 3.10  61 3.10  69 3.10
  59  0.333  0.000  0.487-  11 1.90  52 3.09  76 3.09  51 3.09  60 3.09  84 3.09  67 3.09  87 3.10
                            56 3.10  64 3.10
  60  0.500  0.250  0.487-  12 1.90  52 3.09  68 3.09  67 3.09  59 3.09  83 3.09  91 3.09  64 3.10
                            63 3.10  71 3.10
  61  0.333  0.167  0.228-   8 1.89  16 1.89  15 1.89  13 1.90  86 3.09  78 3.09  54 3.09  53 3.09
                            62 3.09  69 3.09  56 3.10  64 3.10  63 3.10  57 3.10  50 3.10  58 3.10
  62  0.500  0.417  0.228-  15 1.89  23 1.89  40 1.89  14 1.90  54 3.09  70 3.09  69 3.09  61 3.09
                            85 3.09  93 3.09  63 3.10  71 3.10  88 3.10  58 3.10  89 3.10  81 3.10
  63  0.333  0.333  0.357-  35 1.89   4 1.89  12 1.89  15 1.90  80 3.09  55 3.09  88 3.09  56 3.09
                            71 3.09  64 3.09  54 3.10  62 3.10  61 3.10  83 3.10  52 3.10  60 3.10
  64  0.500  0.083  0.357-  11 1.89  19 1.89  12 1.89  16 1.90  87 3.09  95 3.09  56 3.09  72 3.09
                            71 3.09  63 3.09  86 3.10  69 3.10  61 3.10  59 3.10  67 3.10  60 3.10
  65  0.667  0.000  0.098-  21 1.90  46 1.90  38 1.90  17 1.90  66 3.09  90 3.09  49 3.09  82 3.09
                            58 3.09  57 3.09  69 3.10  94 3.10  86 3.10
  66  0.833  0.250  0.098-  22 1.90  21 1.90   5 1.90  18 1.90  65 3.09  89 3.09  58 3.09  73 3.09
                            49 3.09  50 3.09  70 3.10  69 3.10  53 3.10
  67  0.667  0.000  0.487-  19 1.90  68 3.09  92 3.09  51 3.09  84 3.09  60 3.09  59 3.09  95 3.10
                            72 3.10  64 3.10
  68  0.833  0.250  0.487-  20 1.90  67 3.09  91 3.09  60 3.09  75 3.09  51 3.09  52 3.09  72 3.10
                            71 3.10  55 3.10
  69  0.667  0.167  0.228-  24 1.89  16 1.89  23 1.89  21 1.90  94 3.09  86 3.09  70 3.09  53 3.09
                            62 3.09  61 3.09  72 3.10  64 3.10  71 3.10  65 3.10  66 3.10  58 3.10
  70  0.833  0.417  0.228-  23 1.89   7 1.89  48 1.89  22 1.90  69 3.09  93 3.09  62 3.09  77 3.09
                            53 3.09  54 3.09  71 3.10  55 3.10  96 3.10  66 3.10  89 3.10  73 3.10
  71  0.667  0.333  0.357-  43 1.89  20 1.89  12 1.89  23 1.90  72 3.09  96 3.09  55 3.09  88 3.09
                            63 3.09  64 3.09  70 3.10  62 3.10  69 3.10  91 3.10  68 3.10  60 3.10
  72  0.833  0.083  0.357-  20 1.89  19 1.89   3 1.89  24 1.90  71 3.09  95 3.09  64 3.09  79 3.09
                            55 3.09  56 3.09  69 3.10  53 3.10  94 3.10  68 3.10  67 3.10  51 3.10
  73  0.000  0.500  0.098-  29 1.90  22 1.90   6 1.90  25 1.90  81 3.09  89 3.09  74 3.09  50 3.09
                            66 3.09  90 3.09  77 3.10  70 3.10  54 3.10
  74  0.167  0.750  0.098-  30 1.90  37 1.90  29 1.90  26 1.90  57 3.09  81 3.09  82 3.09  49 3.09
                            73 3.09  90 3.09  78 3.10  85 3.10  77 3.10
  75  0.000  0.500  0.487-  27 1.90  83 3.09  91 3.09  76 3.09  52 3.09  68 3.09  92 3.09  55 3.10
                            80 3.10  96 3.10
  76  0.167  0.750  0.487-  28 1.90  59 3.09  83 3.09  84 3.09  51 3.09  75 3.09  92 3.09  80 3.10
                            87 3.10  79 3.10
  77  0.000  0.667  0.228-  32 1.89  48 1.89  31 1.89  29 1.90  85 3.09  93 3.09  78 3.09  54 3.09
                            70 3.09  94 3.09  80 3.10  96 3.10  79 3.10  73 3.10  90 3.10  74 3.10
  78  0.167  0.917  0.228-  39 1.89  31 1.89   8 1.89  30 1.90  61 3.09  85 3.09  86 3.09  53 3.09
                            77 3.09  94 3.09  87 3.10  79 3.10  56 3.10  74 3.10  57 3.10  49 3.10
  79  0.000  0.833  0.357-   3 1.89  28 1.89  44 1.89  31 1.90  56 3.09  87 3.09  95 3.09  72 3.09
                            80 3.09  96 3.09  78 3.10  94 3.10  77 3.10  51 3.10  92 3.10  76 3.10
  80  0.167  0.583  0.357-  28 1.89  35 1.89  27 1.89  32 1.90  63 3.09  87 3.09  88 3.09  55 3.09
                            79 3.09  96 3.09  85 3.10  77 3.10  54 3.10  76 3.10  83 3.10  75 3.10
  81  0.333  0.500  0.098-  37 1.90   6 1.90  14 1.90  33 1.90  50 3.09  74 3.09  73 3.09  58 3.09
                            82 3.09  89 3.09  85 3.10  54 3.10  62 3.10
  82  0.500  0.750  0.098-  38 1.90  37 1.90  45 1.90  34 1.90  74 3.09  90 3.09  57 3.09  81 3.09
                            89 3.09  65 3.09  86 3.10  85 3.10  93 3.10
  83  0.333  0.500  0.487-  35 1.90  52 3.09  76 3.09  75 3.09  60 3.09  84 3.09  91 3.09  63 3.10
                            80 3.10  88 3.10
  84  0.500  0.750  0.487-  36 1.90  76 3.09  92 3.09  59 3.09  83 3.09  91 3.09  67 3.09  88 3.10
                            87 3.10  95 3.10
  85  0.333  0.667  0.228-  32 1.89  40 1.89  39 1.89  37 1.90  54 3.09  78 3.09  77 3.09  62 3.09
                            93 3.09  86 3.09  80 3.10  88 3.10  87 3.10  81 3.10  74 3.10  82 3.10
  86  0.500  0.917  0.228-  16 1.89  39 1.89  47 1.89  38 1.90  61 3.09  69 3.09  94 3.09  78 3.09
                            93 3.09  85 3.09  64 3.10  87 3.10  95 3.10  65 3.10  57 3.10  82 3.10
  87  0.333  0.833  0.357-  11 1.89  28 1.89  36 1.89  39 1.90  56 3.09  64 3.09  80 3.09  79 3.09
                            88 3.09  95 3.09  78 3.10  86 3.10  85 3.10  59 3.10  76 3.10  84 3.10
  88  0.500  0.583  0.357-  36 1.89  35 1.89  43 1.89  40 1.90  80 3.09  96 3.09  63 3.09  87 3.09
                            95 3.09  71 3.09  85 3.10  93 3.10  62 3.10  84 3.10  91 3.10  83 3.10
  89  0.667  0.500  0.098-  45 1.90  22 1.90  14 1.90  41 1.90  66 3.09  90 3.09  73 3.09  82 3.09
                            58 3.09  81 3.09  93 3.10  70 3.10  62 3.10
  90  0.833  0.750  0.098-  45 1.90  46 1.90  29 1.90  42 1.90  65 3.09  89 3.09  82 3.09  49 3.09
                            73 3.09  74 3.09  93 3.10  94 3.10  77 3.10
  91  0.667  0.500  0.487-  43 1.90  68 3.09  92 3.09  75 3.09  84 3.09  60 3.09  83 3.09  71 3.10
                            96 3.10  88 3.10
  92  0.833  0.750  0.487-  44 1.90  67 3.09  91 3.09  84 3.09  51 3.09  75 3.09  76 3.09  96 3.10
                            95 3.10  79 3.10
  93  0.667  0.667  0.228-  48 1.89  40 1.89  47 1.89  45 1.90  70 3.09  77 3.09  62 3.09  94 3.09
                            85 3.09  86 3.09  96 3.10  88 3.10  95 3.10  89 3.10  90 3.10  82 3.10
  94  0.833  0.917  0.228-  47 1.89  31 1.89  24 1.89  46 1.90  69 3.09  53 3.09  86 3.09  93 3.09
                            78 3.09  77 3.09  95 3.10  79 3.10  72 3.10  65 3.10  49 3.10  90 3.10
  95  0.667  0.833  0.357-  19 1.89  44 1.89  36 1.89  47 1.90  64 3.09  72 3.09  96 3.09  79 3.09
                            88 3.09  87 3.09  94 3.10  86 3.10  93 3.10  67 3.10  92 3.10  84 3.10
  96  0.833  0.583  0.357-  44 1.89  43 1.89  27 1.89  48 1.90  71 3.09  95 3.09  88 3.09  55 3.09
                            79 3.09  80 3.09  93 3.10  77 3.10  70 3.10  92 3.10  91 3.10  75 3.10
 
  LATTYP: Found a simple orthorhombic cell.
 ALAT       =     9.2842500000
 B/A-ratio  =     1.1547004874
 C/A-ratio  =     2.0998789348
  
  Lattice vectors:
  
 A1 = (   9.2842500000,   0.0000000000,   0.0000000000)
 A2 = (   0.0000000000,  10.7205280000,   0.0000000000)
 A3 = (   0.0000000000,   0.0000000000,  19.4958010000)


Analysis of symmetry for initial positions (statically):
=====================================================================
 Subroutine PRICEL returns following result:
 
  LATTYP: Found a hexagonal cell.
 ALAT       =     3.0947561895
 C/A-ratio  =     6.2996242050
  
  Lattice vectors:
  
 A1 = (  -3.0947561895,  -0.0000000000,   0.0000000000)
 A2 = (   1.5473780947,  -2.6801320000,   0.0000000000)
 A3 = (   0.0000000000,   0.0000000000,  19.4958010000)
 
  12 primitive cells build up your supercell.
 

 Routine SETGRP: Setting up the symmetry group for a 
 simple orthorhombic supercell.


 Subroutine GETGRP returns: Found  2 space group operations
 (whereof  2 operations were pure point group operations)
 out of a pool of  8 trial point group operations.


The static configuration has the point symmetry C_1h.


Analysis of symmetry for dynamics (positions and initial velocities):
=====================================================================
 Subroutine PRICEL returns following result:
 
  LATTYP: Found a hexagonal cell.
 ALAT       =     3.0947561895
 C/A-ratio  =     6.2996242050
  
  Lattice vectors:
  
 A1 = (  -3.0947561895,  -0.0000000000,   0.0000000000)
 A2 = (   1.5473780947,  -2.6801320000,   0.0000000000)
 A3 = (   0.0000000000,   0.0000000000,  19.4958010000)
 
  12 primitive cells build up your supercell.
 

 Routine SETGRP: Setting up the symmetry group for a 
 simple orthorhombic supercell.


 Subroutine GETGRP returns: Found  2 space group operations
 (whereof  2 operations were pure point group operations)
 out of a pool of  8 trial point group operations.


The dynamic configuration has the point symmetry C_1h.


Analysis of constrained symmetry for selective dynamics:
=====================================================================
 Subroutine PRICEL returns following result:
 
  LATTYP: Found a hexagonal cell.
 ALAT       =     3.0947561895
 C/A-ratio  =     6.2996242050
  
  Lattice vectors:
  
 A1 = (  -3.0947561895,  -0.0000000000,   0.0000000000)
 A2 = (   1.5473780947,  -2.6801320000,   0.0000000000)
 A3 = (   0.0000000000,   0.0000000000,  19.4958010000)
 
  12 primitive cells build up your supercell.
 

 Routine SETGRP: Setting up the symmetry group for a 
 simple orthorhombic supercell.


 Subroutine GETGRP returns: Found  2 space group operations
 (whereof  2 operations were pure point group operations)
 out of a pool of  8 trial point group operations.


The constrained configuration has the point symmetry C_1h.


 Subroutine INISYM returns: Found  2 space group operations
 (whereof  2 operations are pure point group operations),
 and found    12 'primitive' translations


----------------------------------------------------------------------------------------

                                     Primitive cell                                     

  volume of cell :     161.7051

  direct lattice vectors                    reciprocal lattice vectors
    -3.094756189 -0.000000000  0.000000000    -0.323127232 -0.186557976  0.000000000
     1.547378095 -2.680132000  0.000000000     0.000000000 -0.373115951  0.000000000
     0.000000000  0.000000000 19.495801000     0.000000000  0.000000000  0.051293096

  length of vectors
     3.094756189  3.094751445 19.495801000     0.373115379  0.373115951  0.051293096

  position of ions in fractional coordinates (direct lattice)
     0.000000000  0.000000000  0.000000000
     0.000000000  0.000000000  0.389445000
     0.666668000  0.333336000  0.130180000
     0.333332000  0.666664000  0.259852000
     0.000000000  0.000000000  0.097624000
     0.000000000  0.000000000  0.487069000
     0.666668000  0.333336000  0.227532000
     0.333332000  0.666664000  0.357207000

  ion indices of the primitive-cell ions
   primitive index   ion index
                 1           1
                 2           3
                 3           5
                 4          31
                 5          49
                 6          51
                 7          53
                 8          79

----------------------------------------------------------------------------------------

 
 
 KPOINTS: K-Spacing Value to Generate K-Mesh: 0.03

Automatic generation of k-mesh.
 Grid dimensions read from file:
 generate k-points for:    4    3    1

 Generating k-lattice:

  Cartesian coordinates                     Fractional coordinates (reciprocal lattice)
     0.026927323  0.000000000  0.000000000     0.250000000  0.000000000  0.000000000
     0.000000000  0.031092996  0.000000000     0.000000000  0.333333333  0.000000000
     0.000000000  0.000000000  0.051293096     0.000000000  0.000000000  1.000000000

  Length of vectors
     0.026927323  0.031092996  0.051293096

  Shift w.r.t. Gamma in fractional coordinates (k-lattice)
     0.000000000  0.000000000  0.000000000

 
 Subroutine IBZKPT returns following result:
 ===========================================
 
 Found      6 irreducible k-points:
 
 Following reciprocal coordinates:
            Coordinates               Weight
  0.000000  0.000000  0.000000      1.000000
  0.250000  0.000000  0.000000      2.000000
  0.500000  0.000000  0.000000      1.000000
  0.000000  0.333333  0.000000      2.000000
  0.250000  0.333333  0.000000      4.000000
  0.500000  0.333333  0.000000      2.000000
 
 Following cartesian coordinates:
            Coordinates               Weight
  0.000000  0.000000  0.000000      1.000000
  0.026927  0.000000  0.000000      2.000000
  0.053855  0.000000  0.000000      1.000000
  0.000000  0.031093  0.000000      2.000000
  0.026927  0.031093  0.000000      4.000000
  0.053855  0.031093  0.000000      2.000000
 


--------------------------------------------------------------------------------------------------------




 Dimension of arrays:
   k-points           NKPTS =      6   k-points in BZ     NKDIM =      6   number of bands    NBANDS=    241
   number of dos      NEDOS =    301   number of ions     NIONS =     96
   non local maximal  LDIM  =      4   non local SUM 2l+1 LMDIM =      8
   total plane-waves  NPLWV = 840000
   max r-space proj   IRMAX =   3178   max aug-charges    IRDMAX=  14671
   dimension x,y,z NGX =    70 NGY =   80 NGZ =  150
   dimension x,y,z NGXF=   140 NGYF=  160 NGZF=  300
   support grid    NGXF=   140 NGYF=  160 NGZF=  300
   ions per type =              48  48
   NGX,Y,Z   is equivalent  to a cutoff of  12.53, 12.41, 12.79 a.u.
   NGXF,Y,Z  is equivalent  to a cutoff of  25.07, 24.81, 25.58 a.u.

 SYSTEM =  ni3al                                   
 POSCAR =  POSCAR                                  

 Startparameter for this run:
   NWRITE =      2    write-flag & timer
   PREC   = accura    normal or accurate (medium, high low for compatibility)
   ISTART =      0    job   : 0-new  1-cont  2-samecut
   ICHARG =      2    charge: 1-file 2-atom 10-const
   ISPIN  =      1    spin polarized calculation?
   LNONCOLLINEAR =      F non collinear calculations
   LSORBIT =      F    spin-orbit coupling
   INIWAV =      1    electr: 0-lowe 1-rand  2-diag
   LASPH  =      F    aspherical Exc in radial PAW
 Electronic Relaxation 1
   ENCUT  =  530.0 eV  38.95 Ry    6.24 a.u.  17.43 20.12 36.60*2*pi/ulx,y,z
   ENINI  =  530.0     initial cutoff
   ENAUG  =  644.9 eV  augmentation charge cutoff
   NELM   =    150;   NELMIN=  2; NELMDL= -5     # of ELM steps 
   EDIFF  = 0.1E-05   stopping-criterion for ELM
   LREAL  =      T    real-space projection
   NLSPLINE    = F    spline interpolate recip. space projectors
   LCOMPAT=      F    compatible to vasp.4.4
   GGA_COMPAT  = T    GGA compatible to vasp.4.4-vasp.4.6
   LMAXPAW     = -100 max onsite density
   LMAXMIX     =    4 max onsite mixed and CHGCAR
   VOSKOWN=      0    Vosko Wilk Nusair interpolation
   ROPT   =   -0.00025  -0.00025
 Ionic relaxation
   EDIFFG = -.1E-01   stopping-criterion for IOM
   NSW    =    300    number of steps for IOM
   NBLOCK =      1;   KBLOCK =    300    inner block; outer block 
   IBRION =      2    ionic relax: 0-MD 1-quasi-New 2-CG
   NFREE  =      1    steps in history (QN), initial steepest desc. (CG)
   ISIF   =      2    stress and relaxation
   IWAVPR =     11    prediction:  0-non 1-charg 2-wave 3-comb
   ISYM   =      2    0-nonsym 1-usesym 2-fastsym
   LCORR  =      T    Harris-Foulkes like correction to forces

   POTIM  = 0.5000    time-step for ionic-motion
   TEIN   =    0.0    initial temperature
   TEBEG  =    0.0;   TEEND  =   0.0 temperature during run
   SMASS  =  -3.00    Nose mass-parameter (am)
   estimated Nose-frequenzy (Omega)   =  0.10E-29 period in steps = 0.13E+47 mass=  -0.197E-26a.u.
   SCALEE = 1.0000    scale energy and forces
   NPACO  =    256;   APACO  = 10.0  distance and # of slots for P.C.
   PSTRESS=    0.0 pullay stress

  Mass of Ions in am
   POMASS =  12.01 28.09
  Ionic Valenz
   ZVAL   =   4.00  4.00
  Atomic Wigner-Seitz radii
   RWIGS  =  -1.00 -1.00
  virtual crystal weights 
   VCA    =   1.00  1.00
   NELECT =     384.0000    total number of electrons
   NUPDOWN=      -1.0000    fix difference up-down

 DOS related values:
   EMIN   =  10.00;   EMAX   =-10.00  energy-range for DOS
   EFERMI =   0.00
   ISMEAR =     0;   SIGMA  =   0.10  broadening in eV -4-tet -1-fermi 0-gaus

 Electronic relaxation 2 (details)
   IALGO  =     68    algorithm
   LDIAG  =      T    sub-space diagonalisation (order eigenvalues)
   LSUBROT=      F    optimize rotation matrix (better conditioning)
   TURBO    =      0    0=normal 1=particle mesh
   IRESTART =      0    0=no restart 2=restart with 2 vectors
   NREBOOT  =      0    no. of reboots
   NMIN     =      0    reboot dimension
   EREF     =   0.00    reference energy to select bands
   IMIX   =      4    mixing-type and parameters
     AMIX     =   0.40;   BMIX     =  1.00
     AMIX_MAG =   1.60;   BMIX_MAG =  1.00
     AMIN     =   0.01
     WC   =   100.;   INIMIX=   1;  MIXPRE=   1;  MAXMIX= -45

 Intra band minimization:
   WEIMIN = 0.0010     energy-eigenvalue tresh-hold
   EBREAK =  0.10E-08  absolut break condition
   DEPER  =   0.30     relativ break condition  

   TIME   =   0.40     timestep for ELM

  volume/ion in A,a.u.               =      20.21       136.40
  Fermi-wavevector in a.u.,A,eV,Ry     =   0.954005  1.802808 12.383004  0.910125
  Thomas-Fermi vector in A             =   2.082712
 
 Write flags
   LWAVE        =      F    write WAVECAR
   LDOWNSAMPLE  =      F    k-point downsampling of WAVECAR
   LCHARG       =      F    write CHGCAR
   LVTOT        =      F    write LOCPOT, total local potential
   LVHAR        =      F    write LOCPOT, Hartree potential only
   LELF         =      F    write electronic localiz. function (ELF)
   LORBIT       =      0    0 simple, 1 ext, 2 COOP (PROOUT), +10 PAW based schemes


 Dipole corrections
   LMONO  =      F    monopole corrections only (constant potential shift)
   LDIPOL =      F    correct potential (dipole corrections)
   IDIPOL =      0    1-x, 2-y, 3-z, 4-all directions 
   EPSILON=  1.0000000 bulk dielectric constant

 Exchange correlation treatment:
   GGA     =    --    GGA type
   LEXCH   =     8    internal setting for exchange type
   LIBXC   =     F    Libxc                    
   VOSKOWN =     0    Vosko Wilk Nusair interpolation
   LHFCALC =     F    Hartree Fock is set to
   LHFONE  =     F    Hartree Fock one center treatment
   AEXX    =    0.0000 exact exchange contribution

 Linear response parameters
   LEPSILON=     F    determine dielectric tensor
   LRPA    =     F    only Hartree local field effects (RPA)
   LNABLA  =     F    use nabla operator in PAW spheres
   LVEL    =     F    velocity operator in full k-point grid
   CSHIFT  =0.1000    complex shift for real part using Kramers Kronig
   OMEGAMAX=  -1.0    maximum frequency
   DEG_THRESHOLD= 0.2000000E-02 threshold for treating states as degnerate
   RTIME   =   -0.100 relaxation time in fs
  (WPLASMAI=    0.000 imaginary part of plasma frequency in eV, 0.658/RTIME)
   DFIELD  = 0.0000000 0.0000000 0.0000000 field for delta impulse in time
 
  Optional k-point grid parameters
   LKPOINTS_OPT  =     F    use optional k-point grid
   KPOINTS_OPT_MODE=     1    mode for optional k-point grid
 
 Orbital magnetization related:
   ORBITALMAG=     F  switch on orbital magnetization
   LCHIMAG   =     F  perturbation theory with respect to B field
   DQ        =  0.001000  dq finite difference perturbation B field
   LLRAUG    =     F  two centre corrections for induced B field



--------------------------------------------------------------------------------------------------------


 conjugate gradient relaxation of ions
   using selective dynamics as specified on POSCAR
 charge density and potential will be updated during run
 non-spin polarized calculation
 RMM-DIIS sequential band-by-band and
  variant of blocked Davidson during initial phase
 perform sub-space diagonalisation
    before iterative eigenvector-optimisation
 modified Broyden-mixing scheme, WC =      100.0
 initial mixing is a Kerker type mixing with AMIX =  0.4000 and BMIX =      1.0000
 Hartree-type preconditioning will be used
 using additional bands           49
 real space projection scheme for non local part
 use partial core corrections
 calculate Harris-corrections to forces 
   (improved forces if not selfconsistent)
 use gradient corrections 
 use of overlap-Matrix (Vanderbilt PP)
 Gauss-broadening in eV      SIGMA  =   0.10


--------------------------------------------------------------------------------------------------------


  energy-cutoff  :      530.00
  volume of cell :     1940.46
      direct lattice vectors                 reciprocal lattice vectors
     9.284250000  0.000000000  0.000000000     0.107709293  0.000000000  0.000000000
     0.000000000 10.720528000  0.000000000     0.000000000  0.093278988  0.000000000
     0.000000000  0.000000000 19.495801000     0.000000000  0.000000000  0.051293096

  length of vectors
     9.284250000 10.720528000 19.495801000     0.107709293  0.093278988  0.051293096


 
 k-points in units of 2pi/SCALE and weight: K-Spacing Value to Generate K-Mesh: 0.03
   0.00000000  0.00000000  0.00000000       0.083
   0.02692732  0.00000000  0.00000000       0.167
   0.05385465  0.00000000  0.00000000       0.083
   0.00000000  0.03109300  0.00000000       0.167
   0.02692732  0.03109300  0.00000000       0.333
   0.05385465  0.03109300  0.00000000       0.167
 
 k-points in reciprocal lattice and weights: K-Spacing Value to Generate K-Mesh: 0.03
   0.00000000  0.00000000  0.00000000       0.083
   0.25000000  0.00000000  0.00000000       0.167
   0.50000000  0.00000000  0.00000000       0.083
   0.00000000  0.33333333  0.00000000       0.167
   0.25000000  0.33333333  0.00000000       0.333
   0.50000000  0.33333333  0.00000000       0.167
 
 position of ions in fractional coordinates (direct lattice) 
   0.00000000  0.00000000  0.00000000
   0.16666700  0.25000000  0.00000000
   0.00000000  0.00000000  0.38944500
   0.16666700  0.25000000  0.38944500
   0.00000000  0.16666600  0.13018000
   0.16666700  0.41666600  0.13018000
   0.00000000  0.33333400  0.25985200
   0.16666700  0.08333300  0.25985200
   0.33333300  0.00000000  0.00000000
   0.50000000  0.25000000  0.00000000
   0.33333300  0.00000000  0.38944500
   0.50000000  0.25000000  0.38944500
   0.33333300  0.16666600  0.13018000
   0.50000000  0.41666600  0.13018000
   0.33333300  0.33333400  0.25985200
   0.50000000  0.08333300  0.25985200
   0.66666700  0.00000000  0.00000000
   0.83333300  0.25000000  0.00000000
   0.66666700  0.00000000  0.38944500
   0.83333300  0.25000000  0.38944500
   0.66666700  0.16666600  0.13018000
   0.83333300  0.41666600  0.13018000
   0.66666700  0.33333400  0.25985200
   0.83333300  0.08333400  0.25985200
   0.00000000  0.50000000  0.00000000
   0.16666700  0.75000000  0.00000000
   0.00000000  0.50000000  0.38944500
   0.16666700  0.75000000  0.38944500
   0.00000000  0.66666600  0.13018000
   0.16666700  0.91666600  0.13018000
   0.00000000  0.83333400  0.25985200
   0.16666700  0.58333400  0.25985200
   0.33333300  0.50000000  0.00000000
   0.50000000  0.75000000  0.00000000
   0.33333300  0.50000000  0.38944500
   0.50000000  0.75000000  0.38944500
   0.33333300  0.66666600  0.13018000
   0.50000000  0.91666700  0.13018000
   0.33333300  0.83333400  0.25985200
   0.50000000  0.58333400  0.25985200
   0.66666700  0.50000000  0.00000000
   0.83333300  0.75000000  0.00000000
   0.66666700  0.50000000  0.38944500
   0.83333300  0.75000000  0.38944500
   0.66666700  0.66666600  0.13018000
   0.83333300  0.91666700  0.13018000
   0.66666700  0.83333400  0.25985200
   0.83333300  0.58333400  0.25985200
   0.00000000  0.00000000  0.09762400
   0.16666700  0.25000000  0.09762400
   0.00000000  0.00000000  0.48706900
   0.16666700  0.25000000  0.48706900
   0.00000000  0.16666600  0.22753200
   0.16666700  0.41666600  0.22753200
   0.00000000  0.33333400  0.35720700
   0.16666700  0.08333300  0.35720700
   0.33333300  0.00000000  0.09762400
   0.50000000  0.25000000  0.09762400
   0.33333300  0.00000000  0.48706900
   0.50000000  0.25000000  0.48706900
   0.33333300  0.16666600  0.22753200
   0.50000000  0.41666600  0.22753200
   0.33333300  0.33333400  0.35720700
   0.50000000  0.08333300  0.35720700
   0.66666700  0.00000000  0.09762400
   0.83333300  0.25000000  0.09762400
   0.66666700  0.00000000  0.48706900
   0.83333300  0.25000000  0.48706900
   0.66666700  0.16666600  0.22753200
   0.83333300  0.41666600  0.22753200
   0.66666700  0.33333400  0.35720700
   0.83333300  0.08333400  0.35720700
   0.00000000  0.50000000  0.09762400
   0.16666700  0.75000000  0.09762400
   0.00000000  0.50000000  0.48706900
   0.16666700  0.75000000  0.48706900
   0.00000000  0.66666600  0.22753200
   0.16666700  0.91666600  0.22753200
   0.00000000  0.83333400  0.35720700
   0.16666700  0.58333400  0.35720700
   0.33333300  0.50000000  0.09762400
   0.50000000  0.75000000  0.09762400
   0.33333300  0.50000000  0.48706900
   0.50000000  0.75000000  0.48706900
   0.33333300  0.66666600  0.22753200
   0.50000000  0.91666700  0.22753200
   0.33333300  0.83333400  0.35720700
   0.50000000  0.58333400  0.35720700
   0.66666700  0.50000000  0.09762400
   0.83333300  0.75000000  0.09762400
   0.66666700  0.50000000  0.48706900
   0.83333300  0.75000000  0.48706900
   0.66666700  0.66666600  0.22753200
   0.83333300  0.91666700  0.22753200
   0.66666700  0.83333400  0.35720700
   0.83333300  0.58333400  0.35720700
 
 position of ions in cartesian coordinates  (Angst):
   0.00000000  0.00000000  0.00000000
   1.54737809  2.68013200  0.00000000
   0.00000000  0.00000000  7.59254222
   1.54737809  2.68013200  7.59254222
   0.00000000  1.78674752  2.53796337
   1.54737809  4.46687952  2.53796337
   0.00000000  3.57351648  5.06602288
   1.54737809  0.89337376  5.06602288
   3.09474691  0.00000000  0.00000000
   4.64212500  2.68013200  0.00000000
   3.09474691  0.00000000  7.59254222
   4.64212500  2.68013200  7.59254222
   3.09474691  1.78674752  2.53796337
   4.64212500  4.46687952  2.53796337
   3.09474691  3.57351648  5.06602288
   4.64212500  0.89337376  5.06602288
   6.18950309  0.00000000  0.00000000
   7.73687191  2.68013200  0.00000000
   6.18950309  0.00000000  7.59254222
   7.73687191  2.68013200  7.59254222
   6.18950309  1.78674752  2.53796337
   7.73687191  4.46687952  2.53796337
   6.18950309  3.57351648  5.06602288
   7.73687191  0.89338448  5.06602288
   0.00000000  5.36026400  0.00000000
   1.54737809  8.04039600  0.00000000
   0.00000000  5.36026400  7.59254222
   1.54737809  8.04039600  7.59254222
   0.00000000  7.14701152  2.53796337
   1.54737809  9.82714352  2.53796337
   0.00000000  8.93378048  5.06602288
   1.54737809  6.25364848  5.06602288
   3.09474691  5.36026400  0.00000000
   4.64212500  8.04039600  0.00000000
   3.09474691  5.36026400  7.59254222
   4.64212500  8.04039600  7.59254222
   3.09474691  7.14701152  2.53796337
   4.64212500  9.82715424  2.53796337
   3.09474691  8.93378048  5.06602288
   4.64212500  6.25364848  5.06602288
   6.18950309  5.36026400  0.00000000
   7.73687191  8.04039600  0.00000000
   6.18950309  5.36026400  7.59254222
   7.73687191  8.04039600  7.59254222
   6.18950309  7.14701152  2.53796337
   7.73687191  9.82715424  2.53796337
   6.18950309  8.93378048  5.06602288
   7.73687191  6.25364848  5.06602288
   0.00000000  0.00000000  1.90325808
   1.54737809  2.68013200  1.90325808
   0.00000000  0.00000000  9.49580030
   1.54737809  2.68013200  9.49580030
   0.00000000  1.78674752  4.43591859
   1.54737809  4.46687952  4.43591859
   0.00000000  3.57351648  6.96403659
   1.54737809  0.89337376  6.96403659
   3.09474691  0.00000000  1.90325808
   4.64212500  2.68013200  1.90325808
   3.09474691  0.00000000  9.49580030
   4.64212500  2.68013200  9.49580030
   3.09474691  1.78674752  4.43591859
   4.64212500  4.46687952  4.43591859
   3.09474691  3.57351648  6.96403659
   4.64212500  0.89337376  6.96403659
   6.18950309  0.00000000  1.90325808
   7.73687191  2.68013200  1.90325808
   6.18950309  0.00000000  9.49580030
   7.73687191  2.68013200  9.49580030
   6.18950309  1.78674752  4.43591859
   7.73687191  4.46687952  4.43591859
   6.18950309  3.57351648  6.96403659
   7.73687191  0.89338448  6.96403659
   0.00000000  5.36026400  1.90325808
   1.54737809  8.04039600  1.90325808
   0.00000000  5.36026400  9.49580030
   1.54737809  8.04039600  9.49580030
   0.00000000  7.14701152  4.43591859
   1.54737809  9.82714352  4.43591859
   0.00000000  8.93378048  6.96403659
   1.54737809  6.25364848  6.96403659
   3.09474691  5.36026400  1.90325808
   4.64212500  8.04039600  1.90325808
   3.09474691  5.36026400  9.49580030
   4.64212500  8.04039600  9.49580030
   3.09474691  7.14701152  4.43591859
   4.64212500  9.82715424  4.43591859
   3.09474691  8.93378048  6.96403659
   4.64212500  6.25364848  6.96403659
   6.18950309  5.36026400  1.90325808
   7.73687191  8.04039600  1.90325808
   6.18950309  5.36026400  9.49580030
   7.73687191  8.04039600  9.49580030
   6.18950309  7.14701152  4.43591859
   7.73687191  9.82715424  4.43591859
   6.18950309  8.93378048  6.96403659
   7.73687191  6.25364848  6.96403659
 


--------------------------------------------------------------------------------------------------------


 k-point   1 :   0.0000 0.0000 0.0000  plane waves:   53799
 k-point   2 :   0.2500 0.0000 0.0000  plane waves:   53755
 k-point   3 :   0.5000 0.0000 0.0000  plane waves:   53770
 k-point   4 :   0.0000 0.3333 0.0000  plane waves:   53790
 k-point   5 :   0.2500 0.3333 0.0000  plane waves:   53786
 k-point   6 :   0.5000 0.3333 0.0000  plane waves:   53718

 maximum and minimum number of plane-waves per node :     53799    53718

 maximum number of plane-waves:     53799
 maximum index in each direction: 
   IXMAX=   17   IYMAX=   20   IZMAX=   36
   IXMIN=  -17   IYMIN=  -20   IZMIN=  -36


 serial   3D FFT for wavefunctions
 parallel 3D FFT for charge:
    minimum data exchange during FFTs selected (reduces bandwidth)


 total amount of memory used by VASP MPI-rank0  1115599. kBytes
=======================================================================

   base      :      30000. kBytes
   nonlr-proj:      22596. kBytes
   fftplans  :     230088. kBytes
   grid      :     411801. kBytes
   one-center:        294. kBytes
   wavefun   :     420820. kBytes
 
     INWAV:  cpu time      0.0003: real time      0.0000
 Broyden mixing: mesh for mixing (old mesh)
   NGX = 35   NGY = 41   NGZ = 73
  (NGX  =140   NGY  =160   NGZ  =300)
  gives a total of 104755 points

 initial charge density was supplied:
 charge density of overlapping atoms calculated
 number of electron     384.0000000 magnetization 
 keeping initial charge density in first step


--------------------------------------------------------------------------------------------------------


 Maximum index for non-local projection operator         3048
 Maximum index for augmentation-charges        14051 (set IRDMAX)


--------------------------------------------------------------------------------------------------------


 First call to EWALD:  gamma=   0.142
 Maximum number of real-space cells 4x 3x 2
 Maximum number of reciprocal cells 2x 2x 4

    FEWALD:  cpu time      0.0207: real time      0.0104


--------------------------------------- Iteration      1(   1)  ---------------------------------------


    POTLOK:  cpu time      9.0604: real time      1.4053
    SETDIJ:  cpu time      1.1662: real time      0.1666
     EDDAV:  cpu time     41.4367: real time      6.0696
       DOS:  cpu time      0.0193: real time      0.0028
    --------------------------------------------
      LOOP:  cpu time     51.6832: real time      7.6445

 eigenvalue-minimisations  :  2892
 total energy-change (2. order) : 0.2023433E+04  (-0.1603368E+05)
 number of electron     384.0000000 magnetization 
 augmentation part      384.0000000 magnetization 

 Free energy of the ion-electron system (eV)
  ---------------------------------------------------
  alpha Z        PSCENC =       273.43042677
  Ewald energy   TEWEN  =     34865.15399455
  -Hartree energ DENC   =    -46505.54196525
  -exchange      EXHF   =         0.00000000
  -V(xc)+E(xc)   XCENC  =       209.36879182
  PAW double counting   =      3398.83426340    -2609.57693563
  entropy T*S    EENTRO =        -0.08651847
  eigenvalues    EBANDS =       381.50878030
  atomic energy  EATOM  =     12010.34264613
  Solvation  Ediel_sol  =         0.00000000
  ---------------------------------------------------
  free energy    TOTEN  =      2023.43348361 eV

  energy without entropy =     2023.52000208  energy(sigma->0) =     2023.47674285


--------------------------------------------------------------------------------------------------------




--------------------------------------- Iteration      1(   2)  ---------------------------------------


     EDDAV:  cpu time     49.9806: real time      7.1497
       DOS:  cpu time      0.0157: real time      0.0022
    --------------------------------------------
      LOOP:  cpu time     49.9961: real time      7.1519

 eigenvalue-minimisations  :  3653
 total energy-change (2. order) :-0.2412885E+04  (-0.2299263E+04)
 number of electron     384.0000000 magnetization 
 augmentation part      384.0000000 magnetization 

 Free energy of the ion-electron system (eV)
  ---------------------------------------------------
  alpha Z        PSCENC =       273.43042677
  Ewald energy   TEWEN  =     34865.15399455
  -Hartree energ DENC   =    -46505.54196525
  -exchange      EXHF   =         0.00000000
  -V(xc)+E(xc)   XCENC  =       209.36879182
  PAW double counting   =      3398.83426340    -2609.57693563
  entropy T*S    EENTRO =        -0.06130066
  eigenvalues    EBANDS =     -2031.40186843
  atomic energy  EATOM  =     12010.34264613
  Solvation  Ediel_sol  =         0.00000000
  ---------------------------------------------------
  free energy    TOTEN  =      -389.45194731 eV

  energy without entropy =     -389.39064665  energy(sigma->0) =     -389.42129698


--------------------------------------------------------------------------------------------------------




--------------------------------------- Iteration      1(   3)  ---------------------------------------


     EDDAV:  cpu time     50.8546: real time      7.3445
       DOS:  cpu time      0.0158: real time      0.0023
    --------------------------------------------
      LOOP:  cpu time     50.8704: real time      7.3468

 eigenvalue-minimisations  :  3792
 total energy-change (2. order) :-0.3065118E+03  (-0.2998903E+03)
 number of electron     384.0000000 magnetization 
 augmentation part      384.0000000 magnetization 

 Free energy of the ion-electron system (eV)
  ---------------------------------------------------
  alpha Z        PSCENC =       273.43042677
  Ewald energy   TEWEN  =     34865.15399455
  -Hartree energ DENC   =    -46505.54196525
  -exchange      EXHF   =         0.00000000
  -V(xc)+E(xc)   XCENC  =       209.36879182
  PAW double counting   =      3398.83426340    -2609.57693563
  entropy T*S    EENTRO =        -0.12065182
  eigenvalues    EBANDS =     -2337.85433903
  atomic energy  EATOM  =     12010.34264613
  Solvation  Ediel_sol  =         0.00000000
  ---------------------------------------------------
  free energy    TOTEN  =      -695.96376907 eV

  energy without entropy =     -695.84311725  energy(sigma->0) =     -695.90344316


--------------------------------------------------------------------------------------------------------




--------------------------------------- Iteration      1(   4)  ---------------------------------------


     EDDAV:  cpu time     54.5040: real time      7.8075
       DOS:  cpu time      0.0158: real time      0.0023
    --------------------------------------------
      LOOP:  cpu time     54.5198: real time      7.8098

 eigenvalue-minimisations  :  4032
 total energy-change (2. order) :-0.1767386E+02  (-0.1753875E+02)
 number of electron     384.0000000 magnetization 
 augmentation part      384.0000000 magnetization 

 Free energy of the ion-electron system (eV)
  ---------------------------------------------------
  alpha Z        PSCENC =       273.43042677
  Ewald energy   TEWEN  =     34865.15399455
  -Hartree energ DENC   =    -46505.54196525
  -exchange      EXHF   =         0.00000000
  -V(xc)+E(xc)   XCENC  =       209.36879182
  PAW double counting   =      3398.83426340    -2609.57693563
  entropy T*S    EENTRO =        -0.12407736
  eigenvalues    EBANDS =     -2355.52477433
  atomic energy  EATOM  =     12010.34264613
  Solvation  Ediel_sol  =         0.00000000
  ---------------------------------------------------
  free energy    TOTEN  =      -713.63762990 eV

  energy without entropy =     -713.51355255  energy(sigma->0) =     -713.57559122


--------------------------------------------------------------------------------------------------------




--------------------------------------- Iteration      1(   5)  ---------------------------------------


     EDDAV:  cpu time     53.3064: real time      7.6494
       DOS:  cpu time      0.0156: real time      0.0022
    CHARGE:  cpu time      3.3619: real time      0.6600
    MIXING:  cpu time      0.6257: real time      0.0895
    --------------------------------------------
      LOOP:  cpu time     57.3101: real time      8.4012

 eigenvalue-minimisations  :  3968
 total energy-change (2. order) :-0.5806734E+00  (-0.5794309E+00)
 number of electron     383.9999967 magnetization 
 augmentation part       -4.4836400 magnetization 

 Broyden mixing:
  rms(total) = 0.44749E+01    rms(broyden)= 0.44741E+01
  rms(prec ) = 0.53113E+01
  weight for this iteration     100.00

 Free energy of the ion-electron system (eV)
  ---------------------------------------------------
  alpha Z        PSCENC =       273.43042677
  Ewald energy   TEWEN  =     34865.15399455
  -Hartree energ DENC   =    -46505.54196525
  -exchange      EXHF   =         0.00000000
  -V(xc)+E(xc)   XCENC  =       209.36879182
  PAW double counting   =      3398.83426340    -2609.57693563
  entropy T*S    EENTRO =        -0.12402649
  eigenvalues    EBANDS =     -2356.10549858
  atomic energy  EATOM  =     12010.34264613
  Solvation  Ediel_sol  =         0.00000000
  ---------------------------------------------------
  free energy    TOTEN  =      -714.21830328 eV

  energy without entropy =     -714.09427679  energy(sigma->0) =     -714.15629004


--------------------------------------------------------------------------------------------------------




--------------------------------------- Iteration      1(   6)  ---------------------------------------


    POTLOK:  cpu time      8.8332: real time      1.3609
    SETDIJ:  cpu time      0.6337: real time      0.0906
    EDDIAG:  cpu time      3.1588: real time      0.6300
  RMM-DIIS:  cpu time      6.1534: real time      2.6555
    ORTHCH:  cpu time      0.1264: real time      0.0641
       DOS:  cpu time      0.0047: real time      0.0023
    CHARGE:  cpu time      2.4713: real time      0.6436
    MIXING:  cpu time      0.6322: real time      0.0903
    --------------------------------------------
      LOOP:  cpu time     22.0138: real time      5.5373

 eigenvalue-minimisations  :  2904
 total energy-change (2. order) : 0.7803800E+02  (-0.2430723E+02)
 number of electron     383.9999972 magnetization 
 augmentation part       -6.7536921 magnetization 

 Broyden mixing:
  rms(total) = 0.16086E+01    rms(broyden)= 0.16085E+01
  rms(prec ) = 0.20467E+01
  weight for this iteration     100.00

 eigenvalues of (default mixing * dielectric matrix)
  average eigenvalue GAMMA=   1.2246
  1.2246

 Free energy of the ion-electron system (eV)
  ---------------------------------------------------
  alpha Z        PSCENC =       273.43042677
  Ewald energy   TEWEN  =     34865.15399455
  -Hartree energ DENC   =    -46898.46588855
  -exchange      EXHF   =         0.00000000
  -V(xc)+E(xc)   XCENC  =       237.03184640
  PAW double counting   =      4119.46703139    -3335.24459654
  entropy T*S    EENTRO =        -0.17130004
  eigenvalues    EBANDS =     -1907.72446018
  atomic energy  EATOM  =     12010.34264613
  Solvation  Ediel_sol  =         0.00000000
  ---------------------------------------------------
  free energy    TOTEN  =      -636.18030007 eV

  energy without entropy =     -636.00900003  energy(sigma->0) =     -636.09465005


--------------------------------------------------------------------------------------------------------




--------------------------------------- Iteration      1(   7)  ---------------------------------------


    POTLOK:  cpu time      9.0509: real time      1.3957
    SETDIJ:  cpu time      0.6628: real time      0.0947
    EDDIAG:  cpu time      3.1462: real time      0.6334
  RMM-DIIS:  cpu time      6.4424: real time      2.8050
    ORTHCH:  cpu time      0.1264: real time      0.0641
       DOS:  cpu time      0.0046: real time      0.0023
    CHARGE:  cpu time      2.4335: real time      0.6348
    MIXING:  cpu time      0.5610: real time      0.0802
    --------------------------------------------
      LOOP:  cpu time     22.4277: real time      5.7102

 eigenvalue-minimisations  :  3079
 total energy-change (2. order) :-0.1810875E+01  (-0.8674647E+01)
 number of electron     383.9999974 magnetization 
 augmentation part       -7.1791407 magnetization 

 Broyden mixing:
  rms(total) = 0.10846E+01    rms(broyden)= 0.10843E+01
  rms(prec ) = 0.15308E+01
  weight for this iteration     100.00

 eigenvalues of (default mixing * dielectric matrix)
  average eigenvalue GAMMA=   0.9069
  1.1819  0.6319

 Free energy of the ion-electron system (eV)
  ---------------------------------------------------
  alpha Z        PSCENC =       273.43042677
  Ewald energy   TEWEN  =     34865.15399455
  -Hartree energ DENC   =    -47013.59345153
  -exchange      EXHF   =         0.00000000
  -V(xc)+E(xc)   XCENC  =       244.52835365
  PAW double counting   =      4354.87434954    -3572.32287798
  entropy T*S    EENTRO =        -0.12382013
  eigenvalues    EBANDS =     -1800.28079638
  atomic energy  EATOM  =     12010.34264613
  Solvation  Ediel_sol  =         0.00000000
  ---------------------------------------------------
  free energy    TOTEN  =      -637.99117537 eV

  energy without entropy =     -637.86735524  energy(sigma->0) =     -637.92926531


--------------------------------------------------------------------------------------------------------




--------------------------------------- Iteration      1(   8)  ---------------------------------------


    POTLOK:  cpu time      8.8664: real time      1.3670
    SETDIJ:  cpu time      0.5865: real time      0.0839
    EDDIAG:  cpu time      3.1981: real time      0.6330
  RMM-DIIS:  cpu time      6.6350: real time      2.9005
    ORTHCH:  cpu time      0.1264: real time      0.0641
       DOS:  cpu time      0.0045: real time      0.0022
    CHARGE:  cpu time      2.4460: real time      0.6395
    MIXING:  cpu time      0.6789: real time      0.0970
    --------------------------------------------
      LOOP:  cpu time     22.5418: real time      5.7871

 eigenvalue-minimisations  :  3160
 total energy-change (2. order) : 0.1319651E+01  (-0.1201249E+01)
 number of electron     383.9999974 magnetization 
 augmentation part       -7.6050415 magnetization 

 Broyden mixing:
  rms(total) = 0.72297E+00    rms(broyden)= 0.72293E+00
  rms(prec ) = 0.77621E+00
  weight for this iteration     100.00

 eigenvalues of (default mixing * dielectric matrix)
  average eigenvalue GAMMA=   1.4951
  2.3576  1.5743  0.5532

 Free energy of the ion-electron system (eV)
  ---------------------------------------------------
  alpha Z        PSCENC =       273.43042677
  Ewald energy   TEWEN  =     34865.15399455
  -Hartree energ DENC   =    -47042.03242145
  -exchange      EXHF   =         0.00000000
  -V(xc)+E(xc)   XCENC  =       247.30616209
  PAW double counting   =      4424.14152775    -3642.05229407
  entropy T*S    EENTRO =        -0.10431942
  eigenvalues    EBANDS =     -1772.85724717
  atomic energy  EATOM  =     12010.34264613
  Solvation  Ediel_sol  =         0.00000000
  ---------------------------------------------------
  free energy    TOTEN  =      -636.67152481 eV

  energy without entropy =     -636.56720539  energy(sigma->0) =     -636.61936510


--------------------------------------------------------------------------------------------------------




--------------------------------------- Iteration      1(   9)  ---------------------------------------


    POTLOK:  cpu time      8.8523: real time      1.3640
    SETDIJ:  cpu time      0.7813: real time      0.1116
    EDDIAG:  cpu time      3.0553: real time      0.6310
  RMM-DIIS:  cpu time      6.2618: real time      2.7143
    ORTHCH:  cpu time      0.1263: real time      0.0640
       DOS:  cpu time      0.0046: real time      0.0023
    CHARGE:  cpu time      2.4363: real time      0.6349
    MIXING:  cpu time      0.5838: real time      0.0835
    --------------------------------------------
      LOOP:  cpu time     22.1017: real time      5.6056

 eigenvalue-minimisations  :  3005
 total energy-change (2. order) : 0.1895571E+00  (-0.8000858E+00)
 number of electron     383.9999974 magnetization 
 augmentation part       -7.4191055 magnetization 

 Broyden mixing:
  rms(total) = 0.31164E+00    rms(broyden)= 0.31163E+00
  rms(prec ) = 0.37857E+00
  weight for this iteration     100.00

 eigenvalues of (default mixing * dielectric matrix)
  average eigenvalue GAMMA=   1.3326
  2.5249  1.1100  1.1100  0.5855

 Free energy of the ion-electron system (eV)
  ---------------------------------------------------
  alpha Z        PSCENC =       273.43042677
  Ewald energy   TEWEN  =     34865.15399455
  -Hartree energ DENC   =    -47011.03680646
  -exchange      EXHF   =         0.00000000
  -V(xc)+E(xc)   XCENC  =       247.12734421
  PAW double counting   =      4430.91481006    -3649.24490719
  entropy T*S    EENTRO =        -0.11589107
  eigenvalues    EBANDS =     -1803.05358473
  atomic energy  EATOM  =     12010.34264613
  Solvation  Ediel_sol  =         0.00000000
  ---------------------------------------------------
  free energy    TOTEN  =      -636.48196772 eV

  energy without entropy =     -636.36607665  energy(sigma->0) =     -636.42402219


--------------------------------------------------------------------------------------------------------




--------------------------------------- Iteration      1(  10)  ---------------------------------------


    POTLOK:  cpu time      8.8639: real time      1.3659
    SETDIJ:  cpu time      0.6389: real time      0.0913
    EDDIAG:  cpu time      3.1682: real time      0.6314
  RMM-DIIS:  cpu time      6.2688: real time      2.7222
    ORTHCH:  cpu time      0.1264: real time      0.0640
       DOS:  cpu time      0.0046: real time      0.0023
    CHARGE:  cpu time      2.4472: real time      0.6403
    MIXING:  cpu time      0.5958: real time      0.0851
    --------------------------------------------
      LOOP:  cpu time     22.1138: real time      5.6025

 eigenvalue-minimisations  :  2981
 total energy-change (2. order) : 0.5045747E+00  (-0.7868725E-01)
 number of electron     383.9999975 magnetization 
 augmentation part       -7.4234959 magnetization 

 Broyden mixing:
  rms(total) = 0.14691E+00    rms(broyden)= 0.14691E+00
  rms(prec ) = 0.18206E+00
  weight for this iteration     100.00

 eigenvalues of (default mixing * dielectric matrix)
  average eigenvalue GAMMA=   1.3440
  2.3437  1.3781  1.3781  0.5729  1.0472

 Free energy of the ion-electron system (eV)
  ---------------------------------------------------
  alpha Z        PSCENC =       273.43042677
  Ewald energy   TEWEN  =     34865.15399455
  -Hartree energ DENC   =    -47048.01903129
  -exchange      EXHF   =         0.00000000
  -V(xc)+E(xc)   XCENC  =       249.15684928
  PAW double counting   =      4482.46455218    -3700.97575565
  entropy T*S    EENTRO =        -0.11150336
  eigenvalues    EBANDS =     -1767.41957167
  atomic energy  EATOM  =     12010.34264613
  Solvation  Ediel_sol  =         0.00000000
  ---------------------------------------------------
  free energy    TOTEN  =      -635.97739306 eV

  energy without entropy =     -635.86588969  energy(sigma->0) =     -635.92164137


--------------------------------------------------------------------------------------------------------




--------------------------------------- Iteration      1(  11)  ---------------------------------------


    POTLOK:  cpu time      8.8797: real time      1.3680
    SETDIJ:  cpu time      0.6459: real time      0.0923
    EDDIAG:  cpu time      3.1513: real time      0.6303
  RMM-DIIS:  cpu time      6.3011: real time      2.7352
    ORTHCH:  cpu time      0.1262: real time      0.0640
       DOS:  cpu time      0.0046: real time      0.0023
    CHARGE:  cpu time      2.4390: real time      0.6361
    MIXING:  cpu time      0.6097: real time      0.0871
    --------------------------------------------
      LOOP:  cpu time     22.1576: real time      5.6152

 eigenvalue-minimisations  :  3026
 total energy-change (2. order) : 0.7544943E-02  (-0.1402358E+00)
 number of electron     383.9999975 magnetization 
 augmentation part       -7.5193094 magnetization 

 Broyden mixing:
  rms(total) = 0.86069E-01    rms(broyden)= 0.86058E-01
  rms(prec ) = 0.11336E+00
  weight for this iteration     100.00

 eigenvalues of (default mixing * dielectric matrix)
  average eigenvalue GAMMA=   1.4319
  2.2738  2.2738  0.5743  0.9489  1.2604  1.2604

 Free energy of the ion-electron system (eV)
  ---------------------------------------------------
  alpha Z        PSCENC =       273.43042677
  Ewald energy   TEWEN  =     34865.15399455
  -Hartree energ DENC   =    -47073.27461300
  -exchange      EXHF   =         0.00000000
  -V(xc)+E(xc)   XCENC  =       250.16201326
  PAW double counting   =      4501.28386573    -3719.75806056
  entropy T*S    EENTRO =        -0.11103799
  eigenvalues    EBANDS =     -1743.19908301
  atomic energy  EATOM  =     12010.34264613
  Solvation  Ediel_sol  =         0.00000000
  ---------------------------------------------------
  free energy    TOTEN  =      -635.96984811 eV

  energy without entropy =     -635.85881013  energy(sigma->0) =     -635.91432912


--------------------------------------------------------------------------------------------------------




--------------------------------------- Iteration      1(  12)  ---------------------------------------


    POTLOK:  cpu time      8.9148: real time      1.3735
    SETDIJ:  cpu time      0.6203: real time      0.0886
    EDDIAG:  cpu time      3.1711: real time      0.6311
  RMM-DIIS:  cpu time      6.2247: real time      2.6931
    ORTHCH:  cpu time      0.1263: real time      0.0639
       DOS:  cpu time      0.0049: real time      0.0025
    CHARGE:  cpu time      2.4341: real time      0.6340
    MIXING:  cpu time      0.6247: real time      0.0893
    --------------------------------------------
      LOOP:  cpu time     22.1210: real time      5.5759

 eigenvalue-minimisations  :  2929
 total energy-change (2. order) : 0.1869858E-01  (-0.2315979E-01)
 number of electron     383.9999975 magnetization 
 augmentation part       -7.5045607 magnetization 

 Broyden mixing:
  rms(total) = 0.34753E-01    rms(broyden)= 0.34750E-01
  rms(prec ) = 0.60269E-01
  weight for this iteration     100.00

 eigenvalues of (default mixing * dielectric matrix)
  average eigenvalue GAMMA=   1.4757
  2.7608  1.8686  1.8686  0.5740  0.9542  1.1518  1.1518

 Free energy of the ion-electron system (eV)
  ---------------------------------------------------
  alpha Z        PSCENC =       273.43042677
  Ewald energy   TEWEN  =     34865.15399455
  -Hartree energ DENC   =    -47065.19183055
  -exchange      EXHF   =         0.00000000
  -V(xc)+E(xc)   XCENC  =       249.36588790
  PAW double counting   =      4474.80775892    -3693.14493594
  entropy T*S    EENTRO =        -0.11252562
  eigenvalues    EBANDS =     -1750.60257170
  atomic energy  EATOM  =     12010.34264613
  Solvation  Ediel_sol  =         0.00000000
  ---------------------------------------------------
  free energy    TOTEN  =      -635.95114953 eV

  energy without entropy =     -635.83862391  energy(sigma->0) =     -635.89488672


--------------------------------------------------------------------------------------------------------




--------------------------------------- Iteration      1(  13)  ---------------------------------------


    POTLOK:  cpu time      8.9494: real time      1.3779
    SETDIJ:  cpu time      0.6368: real time      0.0910
    EDDIAG:  cpu time      3.1642: real time      0.6324
  RMM-DIIS:  cpu time      7.8308: real time      3.5054
    ORTHCH:  cpu time      0.1263: real time      0.0640
       DOS:  cpu time      0.0044: real time      0.0022
    CHARGE:  cpu time      2.4362: real time      0.6346
    MIXING:  cpu time      0.6609: real time      0.0944
    --------------------------------------------
      LOOP:  cpu time     23.8090: real time      6.4020

 eigenvalue-minimisations  :  3785
 total energy-change (2. order) :-0.4610812E-02  (-0.8829127E-02)
 number of electron     383.9999975 magnetization 
 augmentation part       -7.5316292 magnetization 

 Broyden mixing:
  rms(total) = 0.30991E-01    rms(broyden)= 0.30988E-01
  rms(prec ) = 0.44431E-01
  weight for this iteration     100.00

 eigenvalues of (default mixing * dielectric matrix)
  average eigenvalue GAMMA=   1.4777
  3.0665  2.2630  1.8806  1.2239  1.2239  0.9444  0.5739  0.6453

 Free energy of the ion-electron system (eV)
  ---------------------------------------------------
  alpha Z        PSCENC =       273.43042677
  Ewald energy   TEWEN  =     34865.15399455
  -Hartree energ DENC   =    -47079.71741227
  -exchange      EXHF   =         0.00000000
  -V(xc)+E(xc)   XCENC  =       249.83892160
  PAW double counting   =      4484.64902223    -3703.00714754
  entropy T*S    EENTRO =        -0.11302284
  eigenvalues    EBANDS =     -1736.53318898
  atomic energy  EATOM  =     12010.34264613
  Solvation  Ediel_sol  =         0.00000000
  ---------------------------------------------------
  free energy    TOTEN  =      -635.95576034 eV

  energy without entropy =     -635.84273751  energy(sigma->0) =     -635.89924892


--------------------------------------------------------------------------------------------------------




--------------------------------------- Iteration      1(  14)  ---------------------------------------


    POTLOK:  cpu time      9.0092: real time      1.3871
    SETDIJ:  cpu time      0.6185: real time      0.0884
    EDDIAG:  cpu time      3.1725: real time      0.6301
  RMM-DIIS:  cpu time      6.3678: real time      2.7642
    ORTHCH:  cpu time      0.1264: real time      0.0641
       DOS:  cpu time      0.0046: real time      0.0023
    CHARGE:  cpu time      2.4377: real time      0.6350
    MIXING:  cpu time      0.6808: real time      0.0974
    --------------------------------------------
      LOOP:  cpu time     22.4177: real time      5.6688

 eigenvalue-minimisations  :  3035
 total energy-change (2. order) :-0.9653090E-02  (-0.1834922E-02)
 number of electron     383.9999975 magnetization 
 augmentation part       -7.5309123 magnetization 

 Broyden mixing:
  rms(total) = 0.20091E-01    rms(broyden)= 0.20091E-01
  rms(prec ) = 0.26973E-01
  weight for this iteration     100.00

 eigenvalues of (default mixing * dielectric matrix)
  average eigenvalue GAMMA=   1.5769
  3.9643  2.3674  1.9191  1.1817  1.1817  0.5741  1.0550  1.0550  0.8942

 Free energy of the ion-electron system (eV)
  ---------------------------------------------------
  alpha Z        PSCENC =       273.43042677
  Ewald energy   TEWEN  =     34865.15399455
  -Hartree energ DENC   =    -47088.92424220
  -exchange      EXHF   =         0.00000000
  -V(xc)+E(xc)   XCENC  =       249.77378037
  PAW double counting   =      4481.19859518    -3699.53553322
  entropy T*S    EENTRO =        -0.11425648
  eigenvalues    EBANDS =     -1727.29082452
  atomic energy  EATOM  =     12010.34264613
  Solvation  Ediel_sol  =         0.00000000
  ---------------------------------------------------
  free energy    TOTEN  =      -635.96541343 eV

  energy without entropy =     -635.85115695  energy(sigma->0) =     -635.90828519


--------------------------------------------------------------------------------------------------------




--------------------------------------- Iteration      1(  15)  ---------------------------------------


    POTLOK:  cpu time      8.9899: real time      1.3840
    SETDIJ:  cpu time      0.6357: real time      0.0909
    EDDIAG:  cpu time      3.1712: real time      0.6315
  RMM-DIIS:  cpu time      6.4717: real time      2.8223
    ORTHCH:  cpu time      0.1262: real time      0.0639
       DOS:  cpu time      0.0045: real time      0.0023
    CHARGE:  cpu time      2.4377: real time      0.6348
    MIXING:  cpu time      0.7136: real time      0.1020
    --------------------------------------------
      LOOP:  cpu time     22.5504: real time      5.7316

 eigenvalue-minimisations  :  3103
 total energy-change (2. order) :-0.1124304E-01  (-0.7558788E-02)
 number of electron     383.9999975 magnetization 
 augmentation part       -7.5030755 magnetization 

 Broyden mixing:
  rms(total) = 0.39718E-01    rms(broyden)= 0.39715E-01
  rms(prec ) = 0.48746E-01
  weight for this iteration     100.00

 eigenvalues of (default mixing * dielectric matrix)
  average eigenvalue GAMMA=   1.7747
  5.7886  2.5429  1.9152  1.3816  1.3816  1.1643  1.1643  0.5740  0.9173  0.9173

 Free energy of the ion-electron system (eV)
  ---------------------------------------------------
  alpha Z        PSCENC =       273.43042677
  Ewald energy   TEWEN  =     34865.15399455
  -Hartree energ DENC   =    -47088.88223167
  -exchange      EXHF   =         0.00000000
  -V(xc)+E(xc)   XCENC  =       249.50635918
  PAW double counting   =      4474.33696820    -3692.66206601
  entropy T*S    EENTRO =        -0.11484092
  eigenvalues    EBANDS =     -1727.08791270
  atomic energy  EATOM  =     12010.34264613
  Solvation  Ediel_sol  =         0.00000000
  ---------------------------------------------------
  free energy    TOTEN  =      -635.97665648 eV

  energy without entropy =     -635.86181555  energy(sigma->0) =     -635.91923601


--------------------------------------------------------------------------------------------------------




--------------------------------------- Iteration      1(  16)  ---------------------------------------


    POTLOK:  cpu time      8.9995: real time      1.3854
    SETDIJ:  cpu time      0.6257: real time      0.0897
    EDDIAG:  cpu time      3.1589: real time      0.6339
  RMM-DIIS:  cpu time      6.4457: real time      2.8093
    ORTHCH:  cpu time      0.1263: real time      0.0641
       DOS:  cpu time      0.0045: real time      0.0022
    CHARGE:  cpu time      2.4395: real time      0.6368
    MIXING:  cpu time      0.7405: real time      0.1062
    --------------------------------------------
      LOOP:  cpu time     22.5405: real time      5.7276

 eigenvalue-minimisations  :  3071
 total energy-change (2. order) : 0.4567890E-02  (-0.4639028E-02)
 number of electron     383.9999975 magnetization 
 augmentation part       -7.5193506 magnetization 

 Broyden mixing:
  rms(total) = 0.10052E-01    rms(broyden)= 0.10050E-01
  rms(prec ) = 0.14479E-01
  weight for this iteration     100.00

 eigenvalues of (default mixing * dielectric matrix)
  average eigenvalue GAMMA=   1.7209
  5.8474  2.5462  2.1455  1.2510  1.2510  0.5740  1.2150  1.2150  0.8748  1.0050
  1.0050

 Free energy of the ion-electron system (eV)
  ---------------------------------------------------
  alpha Z        PSCENC =       273.43042677
  Ewald energy   TEWEN  =     34865.15399455
  -Hartree energ DENC   =    -47098.15958389
  -exchange      EXHF   =         0.00000000
  -V(xc)+E(xc)   XCENC  =       249.84347537
  PAW double counting   =      4482.09725753    -3700.44888011
  entropy T*S    EENTRO =        -0.11450493
  eigenvalues    EBANDS =     -1718.11692001
  atomic energy  EATOM  =     12010.34264613
  Solvation  Ediel_sol  =         0.00000000
  ---------------------------------------------------
  free energy    TOTEN  =      -635.97208859 eV

  energy without entropy =     -635.85758366  energy(sigma->0) =     -635.91483612


--------------------------------------------------------------------------------------------------------




--------------------------------------- Iteration      1(  17)  ---------------------------------------


    POTLOK:  cpu time      9.1330: real time      1.4102
    SETDIJ:  cpu time      0.5655: real time      0.0809
    EDDIAG:  cpu time      3.0717: real time      0.6403
  RMM-DIIS:  cpu time      6.3250: real time      2.7545
    ORTHCH:  cpu time      0.1263: real time      0.0640
       DOS:  cpu time      0.0046: real time      0.0023
    CHARGE:  cpu time      2.4458: real time      0.6400
    MIXING:  cpu time      0.7692: real time      0.1102
    --------------------------------------------
      LOOP:  cpu time     22.4411: real time      5.7023

 eigenvalue-minimisations  :  2966
 total energy-change (2. order) :-0.1122045E-02  (-0.2944989E-03)
 number of electron     383.9999975 magnetization 
 augmentation part       -7.5194390 magnetization 

 Broyden mixing:
  rms(total) = 0.54806E-02    rms(broyden)= 0.54803E-02
  rms(prec ) = 0.10214E-01
  weight for this iteration     100.00

 eigenvalues of (default mixing * dielectric matrix)
  average eigenvalue GAMMA=   1.8694
  7.1398  2.7583  2.4151  1.7439  1.3511  1.3511  1.1460  1.1460  0.5740  0.9559
  0.9258  0.9258

 Free energy of the ion-electron system (eV)
  ---------------------------------------------------
  alpha Z        PSCENC =       273.43042677
  Ewald energy   TEWEN  =     34865.15399455
  -Hartree energ DENC   =    -47099.77328523
  -exchange      EXHF   =         0.00000000
  -V(xc)+E(xc)   XCENC  =       249.78913670
  PAW double counting   =      4480.37174521    -3698.71778384
  entropy T*S    EENTRO =        -0.11439480
  eigenvalues    EBANDS =     -1716.45569613
  atomic energy  EATOM  =     12010.34264613
  Solvation  Ediel_sol  =         0.00000000
  ---------------------------------------------------
  free energy    TOTEN  =      -635.97321063 eV

  energy without entropy =     -635.85881583  energy(sigma->0) =     -635.91601323


--------------------------------------------------------------------------------------------------------




--------------------------------------- Iteration      1(  18)  ---------------------------------------


    POTLOK:  cpu time      9.0726: real time      1.4039
    SETDIJ:  cpu time      0.5635: real time      0.0807
    EDDIAG:  cpu time      3.2068: real time      0.6337
  RMM-DIIS:  cpu time      6.3384: real time      2.7518
    ORTHCH:  cpu time      0.1263: real time      0.0640
       DOS:  cpu time      0.0046: real time      0.0023
    CHARGE:  cpu time      2.4463: real time      0.6402
    MIXING:  cpu time      0.9223: real time      0.1319
    --------------------------------------------
      LOOP:  cpu time     22.6810: real time      5.7087

 eigenvalue-minimisations  :  2998
 total energy-change (2. order) :-0.1755522E-02  (-0.2277088E-03)
 number of electron     383.9999975 magnetization 
 augmentation part       -7.5163066 magnetization 

 Broyden mixing:
  rms(total) = 0.36897E-02    rms(broyden)= 0.36894E-02
  rms(prec ) = 0.60496E-02
  weight for this iteration     100.00

 eigenvalues of (default mixing * dielectric matrix)
  average eigenvalue GAMMA=   1.9644
  7.7442  3.1206  2.8221  2.0577  1.7064  1.2603  1.2603  0.5740  1.0784  1.0784
  0.9552  0.9552  0.9238

 Free energy of the ion-electron system (eV)
  ---------------------------------------------------
  alpha Z        PSCENC =       273.43042677
  Ewald energy   TEWEN  =     34865.15399455
  -Hartree energ DENC   =    -47103.13563335
  -exchange      EXHF   =         0.00000000
  -V(xc)+E(xc)   XCENC  =       249.76541478
  PAW double counting   =      4479.66855369    -3698.01099556
  entropy T*S    EENTRO =        -0.11417222
  eigenvalues    EBANDS =     -1713.07520094
  atomic energy  EATOM  =     12010.34264613
  Solvation  Ediel_sol  =         0.00000000
  ---------------------------------------------------
  free energy    TOTEN  =      -635.97496615 eV

  energy without entropy =     -635.86079393  energy(sigma->0) =     -635.91788004


--------------------------------------------------------------------------------------------------------




--------------------------------------- Iteration      1(  19)  ---------------------------------------


    POTLOK:  cpu time      8.8733: real time      1.3674
    SETDIJ:  cpu time      0.7261: real time      0.1037
[...]
  227          m_sumb_d                              0.063174                          3   4
  228        fordep                                1.006389                            3   3
  229          setdij_                               1.006225                         18   4
  230        setdij_                               3.327251                           60   3
  231        set_dd_magatom                        0.000012                            3   3
  232        set_dd_paw                            0.082074                            3   3
  233          m_sumb_d                              0.007683                         21   4
  234        strkin                                0.060448                            3   3
  235          m_sumb_d                              0.000746                          3   4
  236        strelo                                0.062151                            3   3
  237        strnlr                               11.146531                            3   3
  238          rspher_all                            1.033066                         27   4
  239          phaser                                0.711490                         54   4
  240          rpro_isp                              9.099663                         54   4
  241            fftwav_mpi                            0.425204                    13014   5
  242              fftwav                                0.407132                  13014   6
  243                fft3d                                 0.310788                13014   7
  244            rpromu_acc                            8.630478                     3294   5
  245          m_sumb_d                              0.203354                         27   4
  246        fft3d_mpi                             1.280110                           33   3
  247          fftbrc_mpi                            1.046303                         33   4
  248            fftbas_plan_mpi                       1.046243                       33   5
  249              dfftw_execute                         0.668261                     99   6
  250              map_forward                           0.170010                     30   6
  251                map_scatter                           0.099555                   15   7
  252              map_backward                          0.204165                     36   6
  253                map_gather                            0.134193                   18   7
  254        ggaall_grid                           0.741887                            3   3
  255        forhar                                0.775988                            6   3
  256        strehar                               0.033219                            3   3
  257        chggra                                0.126113                            3   3
  258          fft3d_mpi                             0.096083                          9   4
  259            fftbrc_mpi                            0.088628                        9   5
  260              fftbas_plan_mpi                       0.088618                      9   6
  261                map_forward                           0.000100                   12   7
  262                  map_scatter                           0.000021                  6   8
  263                map_backward                          0.000037                    6   7
  264                  map_gather                            0.000010                  3   8
  265          pothar                                0.003701                          3   4
  266        brmix                                 0.418211                            3   3
  267          brpre                                 0.004102                          3   4
  268          setg0                                 0.121602                          3   4
  269          broyd                                 0.167327                          3   4
  270            brget                                 0.021165                      267   5
  271            brsav                                 0.015754                       63   5
  272          m_bcast_z                             0.081765                          3   4
  273          m_bcast_d                             0.001424                          3   4
  274        m_bcast_d                             0.000148                            6   3
  275      potlok                                4.214756                              3   2
  276        fft3d_mpi                             1.435883                           39   3
  277          fftbrc_mpi                            1.165338                         39   4
  278            fftbas_plan_mpi                       1.165270                       39   5
  279              dfftw_execute                         0.747607                    117   6
  280              map_forward                           0.207110                     42   6
  281                map_scatter                           0.122114                   21   7
  282              map_backward                          0.205635                     36   6
  283                map_gather                            0.135434                   18   7
  284        ggaall_grid                           0.750264                            3   3
  285        pothar                                0.123816                            3   3
  286      potlok_metagga                        0.000002                              3   2
  287      set_dd_magatom                        0.000012                              3   2
  288      set_dd_paw                            0.087708                              3   2
  289        m_sumb_d                              0.013225                           21   3
  290      wavpre_noio                           1.685577                              2   2
  291        stufak                                0.687942                            2   3
  292      densta                                0.002088                              1   2
  293        m_sumb_d                              0.000102                           37   3
 
 Flat profile
 ============
 
             routine name                   CPU           calls
 ---------------------------------------------------------------
 eddav                                  34.840463           7
 potlok                                 33.908458          54
 i2                                     32.917116       10610
 hamiltmu                               29.543979       12117
 eddiag                                 27.710116          48
 rpromu_acc                             19.525584       16441
 newband                                17.304277       12227
 dfftw_execute                          15.230778        2520
 m_sumb_d                               14.586040        2920
 ggaall_grid                            13.840907          57
 i3                                     12.823952       10610
 set_charge                             11.698101          51
 total_time                             11.415453           1
 setdij_                                 7.387847         133
 fft3d                                   6.278062      223787
 fft3d_mpi                               5.707428       77764
 augmentation_charge                     4.062527          51
 racc0mu_acc                             3.633387       12117
 orth1                                   3.411379        5007
 raccmu_                                 3.387166       12117
 cnorma                                  2.996342      192477
 choleski                                2.977372         102
 map_gather                              2.934606         447
 phaser                                  2.609590         188
 map_scatter                             2.276563         402
 pothar                                  2.232887          57
 eccp                                    2.123833       90669
 setg0                                   1.933821          54
 map_forward                             1.608977         804
 force_and_stress                        1.536712           3
 map_backward                            1.533041         894
 w1_copy                                 1.492388      161337
 rspher_all                              1.472797          40
 lapack                                  1.458710        1507
 set_dd_paw                              1.410328          57
 w1_gemv                                 1.351780      161132
 m_bcast_z                               1.345387         113
 fftwav                                  1.209819      146872
 w1_dot                                  1.117934       22569
 w1_dscal                                1.084163       98653
 stufak                                  1.042772           3
 elmin                                   1.031963           3
 lincom                                  1.003345         212
 wavpre_noio                             0.997635           2
 broyd                                   0.985712          51
 overl_mu                                0.892739       12117
 forhar                                  0.775988           6
 w1_daxpy                                0.742032       83180
 brmix                                   0.703740          51
 orthch                                  0.600505          51
 forloc                                  0.517450           3
 init_hip                                0.455376           1
 w1_gaxpy                                0.410272       45710
 kinhamil                                0.352786       76915
 fftext_mpi                              0.339573       76915
 overl1                                  0.334753       40283
 vhamil                                  0.328374       76915
 eddrmm                                  0.321633          48
 eccp_nl                                 0.309917      128318
 apply_precond                           0.289815       76527
 depsum                                  0.258208          51
 soft_charge                             0.257251          51
 fftwav_mpi                              0.223053      146872
 fftbas_plan_mpi                         0.221877         849
 brget                                   0.212156        2666
 proall                                  0.207829           3
 setup_precond                           0.206030       26510
 zhegv                                   0.171933       19021
 brsav                                   0.157697         708
 overl                                   0.152979       20068
 densta                                  0.111561          56
 strnlr                                  0.098959           3
 ggemm                                   0.085611        1941
 pw_charge                               0.070440       20342
 brpre                                   0.069829          51
 rpro_isp                                0.063033          78
 strelo                                  0.062151           3
 strkin                                  0.059702           3
 inisym                                  0.053330           1
 strehar                                 0.033219           3
 m_bcast_d                               0.032470          70
 fornlr                                  0.032141           3
 chggra                                  0.026329           3
 rsp                                     0.023773           3
 fft_gq                                  0.023117          51
 hamilt_local                            0.021353       23136
 i1                                      0.021090       10610
 hip_hipfft_makeplan                     0.017333           6
 brgrid                                  0.012892           1
 w1_projall                              0.012692       11683
 truncate_high_frequency_w1              0.011511       80289
 fewald                                  0.001600           3
 rcp                                     0.001569           3
 fftbrc_mpi                              0.001266         849
 posmap                                  0.000728           2
 hip_init_hipblas                        0.000321           1
 vectorpot                               0.000278          52
 set_dd_magatom                          0.000247          57
 fordep                                  0.000164           3
 crpa_reader                             0.000089           1
 shift_bands_between_low_high            0.000072          96
 hip_init_rocsolver                      0.000067           1
 potlok_metagga                          0.000031          54
 rotate_active_occupied_orbital          0.000008           3
 hip_hipfft_makeplans                    0.000004           3
 redis_pw_over_bands                     0.000000           3
 ---------------------------------------------------------------
  summed up times    361.374444961548     
 
 Accumulative profile
 ====================
 
             routine name                   CPU           calls
 ---------------------------------------------------------------
 total_time                            361.374445           1
 elmin                                 310.341721           3
 eddrmm                                116.212492          48
 potlok                                 74.837975          54
 eddav                                  49.021770           7
 hamiltmu                               39.647620       12117
 i2                                     38.261796       10610
 set_charge                             32.253670          51
 fft3d_mpi                              31.595577       77764
 eddiag                                 30.359069          48
 force_and_stress                       26.716405           3
 fftbrc_mpi                             23.807110         849
 fftbas_plan_mpi                        23.805843         849
 i3                                     19.926684       10610
 rpromu_acc                             19.525584       16441
 newband                                19.420048       12227
 dfftw_execute                          15.230778        2520
 m_sumb_d                               14.586040        2920
 soft_charge                            14.154519          51
 ggaall_grid                            13.840907          57
 rpro_isp                               13.485671          78
 strnlr                                 11.146531           3
 raccmu_                                 7.913292       12117
 setdij_                                 7.387847         133
 w1_projall                              7.061199       11683
 orthch                                  6.935177          51
 fft3d                                   6.278062      223787
 augmentation_charge                     6.053746          51
 fftwav_mpi                              5.629894      146872
 brmix                                   5.437431          51
 fftwav                                  5.406842      146872
 map_backward                            4.467648         894
 map_forward                             3.885540         804
 fornlr                                  3.702854           3
 racc0mu_acc                             3.633387       12117
 orth1                                   3.411379        5007
 cnorma                                  3.306259      192477
 choleski                                2.977372         102
 map_gather                              2.934606         447
 kinhamil                                2.815835       76915
 phaser                                  2.609590         188
 fftext_mpi                              2.463048       76915
 map_scatter                             2.276563         402
 pothar                                  2.232887          57
 eccp                                    2.123833       90669
 setg0                                   1.933821          54
 set_dd_paw                              1.882011          57
 w1_gemv                                 1.686533      161132
 wavpre_noio                             1.685577           2
 proall                                  1.652032           3
 w1_copy                                 1.492388      161337
 rspher_all                              1.472797          40
 lapack                                  1.458710        1507
 broyd                                   1.355565          51
 m_bcast_z                               1.345387         113
 w1_dot                                  1.117934       22569
 w1_dscal                                1.084163       98653
 stufak                                  1.042772           3
 fordep                                  1.006389           3
 lincom                                  1.003345         212
 hamilt_local                            0.975212       23136
 overl_mu                                0.892739       12117
 forhar                                  0.775988           6
 w1_daxpy                                0.742032       83180
 forloc                                  0.517450           3
 init_hip                                0.455376           1
 w1_gaxpy                                0.410272       45710
 fft_gq                                  0.401200          51
 i1                                      0.367333       10610
 depsum                                  0.347305          51
 overl1                                  0.334753       40283
 vhamil                                  0.328374       76915
 eccp_nl                                 0.309917      128318
 apply_precond                           0.289815       76527
 brget                                   0.212156        2666
 setup_precond                           0.206030       26510
 zhegv                                   0.171933       19021
 brsav                                   0.157697         708
 overl                                   0.152979       20068
 chggra                                  0.126113           3
 densta                                  0.117112          56
 ggemm                                   0.085611        1941
 pw_charge                               0.070440       20342
 brpre                                   0.069829          51
 strelo                                  0.062151           3
 strkin                                  0.060448           3
 inisym                                  0.054058           1
 strehar                                 0.033219           3
 m_bcast_d                               0.032470          70
 fewald                                  0.027499           3
 rsp                                     0.023773           3
 hip_hipfft_makeplans                    0.017337           3
 hip_hipfft_makeplan                     0.017333           6
 brgrid                                  0.012892           1
 truncate_high_frequency_w1              0.011511       80289
 rcp                                     0.001569           3
 posmap                                  0.000728           2
 hip_init_hipblas                        0.000321           1
 vectorpot                               0.000278          52
 set_dd_magatom                          0.000247          57
 crpa_reader                             0.000089           1
 shift_bands_between_low_high            0.000072          96
 hip_init_rocsolver                      0.000067           1
 potlok_metagga                          0.000031          54
 rotate_active_occupied_orbital          0.000008           3
 redis_pw_over_bands                     0.000000           3
 ---------------------------------------------------------------
 
Profiling took   0.420305  0.245651  0.002893  0.002760 seconds
Profiling took   0.305548 seconds
