<?xml version="1.0" encoding="ISO-8859-1"?>
<modeling>
 <generator>
  <i name="program" type="string">vasp </i>
  <i name="version" type="string">6.3.2  </i>
  <i name="subversion" type="string">27Jun22 (build Mar 15 2023 15:45:48) complex                          parallel </i>
  <i name="platform" type="string">LinuxIFC </i>
  <i name="date" type="string">2024 07 14 </i>
  <i name="time" type="string">22:54:02 </i>
 </generator>
 <incar>
  <i type="string" name="SYSTEM">ni3al</i>
  <i type="int" name="ISTART">     0</i>
  <i type="string" name="PREC">Accurate</i>
  <i type="string" name="ALGO">Fast</i>
  <i name="AMIN">      0.01000000</i>
  <i type="int" name="ICHARG">     2</i>
  <i type="int" name="NELM">   150</i>
  <i type="int" name="IBRION">     2</i>
  <i name="EDIFF">      0.00000100</i>
  <i name="EDIFFG">     -0.01000000</i>
  <i type="int" name="NSW">   300</i>
  <i type="int" name="ISIF">     2</i>
  <i name="ENCUT">    530.00000000</i>
  <i type="string" name="LREAL">Auto</i>
  <i type="int" name="ISMEAR">     0</i>
  <i name="SIGMA">      0.10000000</i>
  <i type="int" name="LMAXMIX">     4</i>
  <i type="logical" name="LWAVE"> F  </i>
  <i type="logical" name="LCHARG"> F  </i>
 </incar>
 <primitive_cell>
  <structure name="primitive_cell" >
   <crystal>
    <varray name="basis" >
     <v>      -3.09475619      -0.00000000       0.00000000 </v>
     <v>       1.54737809      -2.68013200       0.00000000 </v>
     <v>       0.00000000       0.00000000      19.49580100 </v>
    </varray>
    <i name="volume">    161.70509637 </i>
    <varray name="rec_basis" >
     <v>      -0.32312723      -0.18655798       0.00000000 </v>
     <v>       0.00000000      -0.37311595       0.00000000 </v>
     <v>       0.00000000       0.00000000       0.05129310 </v>
    </varray>
   </crystal>
   <varray name="positions" >
    <v>       0.00000000       0.00000000       0.00000000 </v>
    <v>       0.00000000       0.00000000       0.38944500 </v>
    <v>       0.66666800       0.33333600       0.13018000 </v>
    <v>       0.33333200       0.66666400       0.25985200 </v>
    <v>       0.00000000       0.00000000       0.09762400 </v>
    <v>       0.00000000       0.00000000       0.48706900 </v>
    <v>       0.66666800       0.33333600       0.22753200 </v>
    <v>       0.33333200       0.66666400       0.35720700 </v>
   </varray>
  </structure>
  <varray name="primitive_index" >
   <v type="int" >        1 </v>
   <v type="int" >        3 </v>
   <v type="int" >        5 </v>
   <v type="int" >       31 </v>
   <v type="int" >       49 </v>
   <v type="int" >       51 </v>
   <v type="int" >       53 </v>
   <v type="int" >       79 </v>
  </varray>
 </primitive_cell>
 <kpoints>
  <generation param="Gamma">
   <v type="int" name="divisions">       4        3        1 </v>
   <v name="usershift">      0.00000000       0.00000000       0.00000000 </v>
   <v name="genvec1">      0.25000000       0.00000000       0.00000000 </v>
   <v name="genvec2">      0.00000000       0.33333333       0.00000000 </v>
   <v name="genvec3">      0.00000000       0.00000000       1.00000000 </v>
   <v name="shift">      0.00000000       0.00000000       0.00000000 </v>
  </generation>
  <varray name="kpointlist" >
   <v>       0.00000000       0.00000000       0.00000000 </v>
   <v>       0.25000000       0.00000000       0.00000000 </v>
   <v>       0.50000000       0.00000000       0.00000000 </v>
   <v>       0.00000000       0.33333333       0.00000000 </v>
   <v>       0.25000000       0.33333333       0.00000000 </v>
   <v>       0.50000000       0.33333333       0.00000000 </v>
  </varray>
  <varray name="weights" >
   <v>       0.08333333 </v>
   <v>       0.16666667 </v>
   <v>       0.08333333 </v>
   <v>       0.16666667 </v>
   <v>       0.33333333 </v>
   <v>       0.16666667 </v>
  </varray>
 </kpoints>
 <parameters>
  <separator name="general" >
   <i type="string" name="SYSTEM">ni3al</i>
   <i type="logical" name="LCOMPAT"> F  </i>
  </separator>
  <separator name="electronic" >
   <i type="string" name="PREC">accura</i>
   <i name="ENMAX">    530.00000000</i>
   <i name="ENAUG">    644.87300000</i>
   <i name="EDIFF">      0.00000100</i>
   <i type="int" name="IALGO">    68</i>
   <i type="int" name="IWAVPR">    11</i>
   <i type="int" name="NBANDS">   241</i>
   <i type="int" name="NBANDSLOW">    -1</i>
   <i type="int" name="NBANDSHIGH">    -1</i>
   <i name="NELECT">    384.00000000</i>
   <i type="int" name="TURBO">     0</i>
   <i type="int" name="IRESTART">     0</i>
   <i type="int" name="NREBOOT">     0</i>
   <i type="int" name="NMIN">     0</i>
   <i name="EREF">      0.00000000</i>
   <separator name="electronic smearing" >
    <i type="int" name="ISMEAR">     0</i>
    <i name="SIGMA">      0.10000000</i>
    <i name="KSPACING">      0.50000000</i>
    <i type="logical" name="KGAMMA"> T  </i>
    <i type="logical" name="KBLOWUP"> T  </i>
   </separator>
   <separator name="electronic projectors" >
    <i type="logical" name="LREAL"> T  </i>
    <v name="ROPT">     -0.00025000     -0.00025000</v>
    <i type="int" name="LMAXPAW">  -100</i>
    <i type="int" name="LMAXMIX">     4</i>
    <i type="logical" name="NLSPLINE"> F  </i>
   </separator>
   <separator name="electronic startup" >
    <i type="int" name="ISTART">     0</i>
    <i type="int" name="ICHARG">     2</i>
    <i type="int" name="INIWAV">     1</i>
   </separator>
   <separator name="electronic spin" >
    <i type="int" name="ISPIN">     1</i>
    <i type="logical" name="LNONCOLLINEAR"> F  </i>
    <v name="MAGMOM">      1.00000000      1.00000000      1.00000000      1.00000000      1.00000000      1.00000000      1.00000000      1.00000000      1.00000000      1.00000000      1.00000000      1.00000000      1.00000000      1.00000000      1.00000000      1.00000000      1.00000000      1.00000000      1.00000000      1.00000000
      1.00000000      1.00000000      1.00000000      1.00000000      1.00000000      1.00000000      1.00000000      1.00000000      1.00000000      1.00000000      1.00000000      1.00000000      1.00000000      1.00000000      1.00000000      1.00000000      1.00000000      1.00000000      1.00000000      1.00000000
      1.00000000      1.00000000      1.00000000      1.00000000      1.00000000      1.00000000      1.00000000      1.00000000      1.00000000      1.00000000      1.00000000      1.00000000      1.00000000      1.00000000      1.00000000      1.00000000      1.00000000      1.00000000      1.00000000      1.00000000
      1.00000000      1.00000000      1.00000000      1.00000000      1.00000000      1.00000000      1.00000000      1.00000000      1.00000000      1.00000000      1.00000000      1.00000000      1.00000000      1.00000000      1.00000000      1.00000000      1.00000000      1.00000000      1.00000000      1.00000000
      1.00000000      1.00000000      1.00000000      1.00000000      1.00000000      1.00000000      1.00000000      1.00000000      1.00000000      1.00000000      1.00000000      1.00000000      1.00000000      1.00000000      1.00000000      1.00000000</v>
    <i name="NUPDOWN">     -1.00000000</i>
    <i type="logical" name="LSORBIT"> F  </i>
    <v name="SAXIS">      0.00000000      0.00000000      1.00000000</v>
    <i type="logical" name="LSPIRAL"> F  </i>
    <v name="QSPIRAL">      0.00000000      0.00000000      0.00000000</v>
    <i type="logical" name="LZEROZ"> F  </i>
   </separator>
   <separator name="electronic exchange-correlation" >
    <i type="logical" name="LASPH"> F  </i>
    <i type="logical" name="LMETAGGA"> F  </i>
   </separator>
   <separator name="electronic convergence" >
    <i type="int" name="NELM">   150</i>
    <i type="int" name="NELMDL">    -5</i>
    <i type="int" name="NELMIN">     2</i>
    <i name="ENINI">    530.00000000</i>
    <separator name="electronic convergence detail" >
     <i type="logical" name="LDIAG"> T  </i>
     <i type="logical" name="LSUBROT"> F  </i>
     <i name="WEIMIN">      0.00100000</i>
     <i name="EBREAK">      0.00000000</i>
     <i name="DEPER">      0.30000000</i>
     <i type="int" name="NRMM">     4</i>
     <i name="TIME">      0.40000000</i>
    </separator>
   </separator>
   <separator name="electronic mixer" >
    <i name="AMIX">      0.40000000</i>
    <i name="BMIX">      1.00000000</i>
    <i name="AMIN">      0.01000000</i>
    <i name="AMIX_MAG">      1.60000000</i>
    <i name="BMIX_MAG">      1.00000000</i>
    <separator name="electronic mixer details" >
     <i type="int" name="IMIX">     4</i>
     <i type="logical" name="MIXFIRST"> F  </i>
     <i type="int" name="MAXMIX">   -45</i>
     <i name="WC">    100.00000000</i>
     <i type="int" name="INIMIX">     1</i>
     <i type="int" name="MIXPRE">     1</i>
     <i type="int" name="MREMOVE">     5</i>
    </separator>
   </separator>
   <separator name="electronic dipolcorrection" >
    <i type="logical" name="LDIPOL"> F  </i>
    <i type="logical" name="LMONO"> F  </i>
    <i type="int" name="IDIPOL">     0</i>
    <i name="EPSILON">      1.00000000</i>
    <v name="DIPOL">   -100.00000000   -100.00000000   -100.00000000</v>
    <i name="EFIELD">      0.00000000</i>
   </separator>
  </separator>
  <separator name="grids" >
   <i type="int" name="NGX">    70</i>
   <i type="int" name="NGY">    80</i>
   <i type="int" name="NGZ">   150</i>
   <i type="int" name="NGXF">   140</i>
   <i type="int" name="NGYF">   160</i>
   <i type="int" name="NGZF">   300</i>
   <i type="logical" name="ADDGRID"> F  </i>
  </separator>
  <separator name="ionic" >
   <i type="int" name="NSW">   300</i>
   <i type="int" name="IBRION">     2</i>
   <i type="int" name="MDALGO">     0</i>
   <i type="int" name="ISIF">     2</i>
   <i name="PSTRESS">      0.00000000</i>
   <i name="EDIFFG">     -0.01000000</i>
   <i type="int" name="NFREE">     1</i>
   <i name="POTIM">      0.50000000</i>
   <i name="SMASS">     -3.00000000</i>
   <i name="SCALEE">      1.00000000</i>
  </separator>
  <separator name="ionic md" >
   <i name="TEBEG">      0.00010000</i>
   <i name="TEEND">      0.00010000</i>
   <i type="int" name="NBLOCK">     1</i>
   <i type="int" name="KBLOCK">   300</i>
   <i type="int" name="NPACO">   256</i>
   <i name="APACO">     10.00000000</i>
  </separator>
  <separator name="symmetry" >
   <i type="int" name="ISYM">     2</i>
   <i name="SYMPREC">      0.00001000</i>
  </separator>
  <separator name="dos" >
   <i type="int" name="LORBIT">     0</i>
   <v name="RWIGS">     -1.00000000     -1.00000000</v>
   <i type="int" name="NEDOS">   301</i>
   <i name="EMIN">     10.00000000</i>
   <i name="EMAX">    -10.00000000</i>
   <i name="EFERMI">      0.00000000</i>
  </separator>
  <separator name="writing" >
   <i type="int" name="NWRITE">     2</i>
   <i type="logical" name="LWAVE"> F  </i>
   <i type="logical" name="LDOWNSAMPLE"> F  </i>
   <i type="logical" name="LCHARG"> F  </i>
   <i type="logical" name="LPARD"> F  </i>
   <i type="logical" name="LVTOT"> F  </i>
   <i type="logical" name="LVHAR"> F  </i>
   <i type="logical" name="LELF"> F  </i>
   <i type="logical" name="LOPTICS"> F  </i>
   <v name="STM">      0.00000000      0.00000000      0.00000000      0.00000000      0.00000000      0.00000000      0.00000000</v>
  </separator>
  <separator name="performance" >
   <i type="int" name="NPAR">     1</i>
   <i type="int" name="NSIM">     4</i>
   <i type="int" name="NBLK">    -1</i>
   <i type="logical" name="LPLANE"> T  </i>
   <i type="logical" name="LSCALAPACK"> T  </i>
   <i type="logical" name="LSCAAWARE"> F  </i>
   <i type="logical" name="LSCALU"> F  </i>
   <i type="logical" name="LASYNC"> F  </i>
   <i type="logical" name="LORBITALREAL"> F  </i>
  </separator>
  <separator name="miscellaneous" >
   <i type="int" name="IDIOT">     3</i>
   <i type="int" name="PHON_NSTRUCT">    -1</i>
   <i type="logical" name="LMUSIC"> F  </i>
   <v name="POMASS">     12.01100000     28.08500000</v>
   <v name="DARWINR">      0.00000000      0.00000000</v>
   <v name="DARWINV">      1.00000000      1.00000000</v>
   <i type="logical" name="LCORR"> T  </i>
  </separator>
  <i type="logical" name="GGA_COMPAT"> T  </i>
  <i type="logical" name="LBERRY"> F  </i>
  <i type="int" name="ICORELEVEL">     0</i>
  <i type="logical" name="LDAU"> F  </i>
  <i type="int" name="I_CONSTRAINED_M">     0</i>
  <separator name="electronic exchange-correlation" >
   <i type="string" name="GGA">--</i>
   <i type="int" name="VOSKOWN">     0</i>
   <i type="logical" name="LHFCALC"> F  </i>
   <i type="string" name="PRECFOCK"></i>
   <i type="logical" name="LSYMGRAD"> F  </i>
   <i type="logical" name="LHFONE"> F  </i>
   <i type="logical" name="LRHFCALC"> F  </i>
   <i type="logical" name="LTHOMAS"> F  </i>
   <i type="logical" name="LMODELHF"> F  </i>
   <i type="logical" name="LFOCKACE"> F  </i>
   <i name="ENCUT4O">     -1.00000000</i>
   <i type="int" name="EXXOEP">     0</i>
   <i type="int" name="FOURORBIT">     0</i>
   <i name="AEXX">      0.00000000</i>
   <i name="HFALPHA">      0.00000000</i>
   <i name="MCALPHA">      0.00000000</i>
   <i name="ALDAX">      1.00000000</i>
   <i name="AGGAX">      1.00000000</i>
   <i name="ALDAC">      1.00000000</i>
   <i name="AGGAC">      1.00000000</i>
   <i type="int" name="NKREDX">     1</i>
   <i type="int" name="NKREDY">     1</i>
   <i type="int" name="NKREDZ">     1</i>
   <i type="logical" name="SHIFTRED"> F  </i>
   <i type="logical" name="ODDONLY"> F  </i>
   <i type="logical" name="EVENONLY"> F  </i>
   <i type="int" name="LMAXFOCK">     0</i>
   <i type="int" name="NMAXFOCKAE">     0</i>
   <i type="logical" name="LFOCKAEDFT"> F  </i>
   <i name="HFSCREEN">      0.00000000</i>
   <i name="HFSCREENC">      0.00000000</i>
   <i type="int" name="NBANDSGWLOW">     0</i>
  </separator>
  <separator name="vdW DFT" >
   <i type="logical" name="LUSE_VDW"> F  </i>
   <i name="Zab_VDW">     -0.84910000</i>
   <i name="PARAM1">      0.12340000</i>
   <i name="PARAM2">      1.00000000</i>
   <i name="PARAM3">      0.00000000</i>
  </separator>
  <separator name="model GW" >
   <i type="int" name="MODEL_GW">     0</i>
   <i name="MODEL_EPS0">     12.12785797</i>
   <i name="MODEL_ALPHA">      1.00000000</i>
  </separator>
  <separator name="linear response parameters" >
   <i type="logical" name="LEPSILON"> F  </i>
   <i type="logical" name="LRPA"> F  </i>
   <i type="logical" name="LNABLA"> F  </i>
   <i type="logical" name="LVEL"> F  </i>
   <i name="CSHIFT">      0.10000000</i>
   <i name="OMEGAMAX">     -1.00000000</i>
   <i name="DEG_THRESHOLD">      0.00200000</i>
   <i name="RTIME">     -0.10000000</i>
   <i name="WPLASMAI">      0.00000000</i>
   <v name="DFIELD">      0.00000000      0.00000000      0.00000000</v>
   <v name="WPLASMA">      0.00000000      0.00000000      0.00000000      0.00000000      0.00000000      0.00000000      0.00000000      0.00000000      0.00000000</v>
  </separator>
  <separator name="orbital magnetization" >
   <i type="logical" name="NUCIND"> F  </i>
   <v name="MAGPOS">      0.00000000      0.00000000      0.00000000</v>
   <i type="logical" name="LNICSALL"> T  </i>
   <i type="logical" name="ORBITALMAG"> F  </i>
   <i type="logical" name="LMAGBLOCH"> F  </i>
   <i type="logical" name="LCHIMAG"> F  </i>
   <i type="logical" name="LGAUGE"> T  </i>
   <i type="int" name="MAGATOM">     0</i>
   <v name="MAGDIPOL">      0.00000000      0.00000000      0.00000000</v>
   <v name="AVECCONST">      0.00000000      0.00000000      0.00000000</v>
  </separator>
  <separator name="response functions" >
   <i type="logical" name="LFINITE_TEMPERATURE"> F  </i>
   <i type="logical" name="LADDER"> F  </i>
   <i type="logical" name="LRPAFORCE"> F  </i>
   <i type="logical" name="LFXC"> F  </i>
   <i type="logical" name="LHARTREE"> T  </i>
   <i type="int" name="IBSE">     0</i>
   <v type="int" name="KPOINT">    -1     0     0     0</v>
   <i type="logical" name="LTCTC"> F  </i>
   <i type="logical" name="LTCTE"> F  </i>
   <i type="logical" name="LTETE"> F  </i>
   <i type="logical" name="LTRIPLET"> F  </i>
   <i type="logical" name="LFXCEPS"> F  </i>
   <i type="logical" name="LFXHEG"> F  </i>
   <i type="int" name="NATURALO">     2</i>
   <i type="logical" name="LHOLEGF"> F  </i>
   <i type="logical" name="L2ORDER"> F  </i>
   <i type="logical" name="LDMP1"> F  </i>
   <i type="logical" name="LMP2LT"> F  </i>
   <i type="logical" name="LSMP2LT"> F  </i>
   <i type="logical" name="LGWLF"> F  </i>
   <i name="ENCUTGW">     -2.00000000</i>
   <i name="ENCUTGWSOFT">     -2.00000000</i>
   <i name="ENCUTLF">     -1.00000000</i>
   <i type="logical" name="LESF_SPLINES"> F  </i>
   <i type="int" name="LMAXMP2">    -1</i>
   <i name="SCISSOR">      0.00000000</i>
   <i type="int" name="NOMEGA">     0</i>
   <i type="int" name="NOMEGAR">     0</i>
   <i type="int" name="NBANDSGW">    -1</i>
   <i type="int" name="NBANDSO">    -1</i>
   <i type="int" name="NBANDSV">    -1</i>
   <i type="int" name="NELMGW">     1</i>
   <i type="int" name="NELMHF">     1</i>
   <i type="int" name="DIM">     3</i>
   <i type="int" name="IESPILON">     4</i>
   <i type="int" name="ANTIRES">     0</i>
   <i name="OMEGAMAX">    -30.00000000</i>
   <i name="OMEGAMIN">    -30.00000000</i>
   <i name="OMEGATL">   -200.00000000</i>
   <i type="int" name="OMEGAGRID">     0</i>
   <i name="CSHIFT">     -0.10000000</i>
   <i type="logical" name="LSELFENERGY"> F  </i>
   <i type="logical" name="LSPECTRAL"> F  </i>
   <i type="logical" name="LSPECTRALGW"> F  </i>
   <i type="logical" name="LSINGLES"> F  </i>
   <i type="logical" name="LFERMIGW"> F  </i>
   <i type="logical" name="ODDONLYGW"> F  </i>
   <i type="logical" name="EVENONLYGW"> F  </i>
   <i type="int" name="NKREDLFX">     1</i>
   <i type="int" name="NKREDLFY">     1</i>
   <i type="int" name="NKREDLFZ">     1</i>
   <i type="int" name="MAXMEM">  2800</i>
   <i type="int" name="TELESCOPE">     0</i>
   <i type="int" name="NTAUPAR">    -1</i>
   <i type="int" name="NOMEGAPAR">    -1</i>
   <i name="DAMP_NEWTON">      0.80000001</i>
   <i name="LAMBDA">      1.00000000</i>
  </separator>
  <separator name="External order field" >
   <i name="OFIELD_KAPPA">      0.00000000</i>
   <v name="OFIELD_K">      0.00000000      0.00000000      0.00000000</v>
   <i name="OFIELD_Q6_NEAR">      0.00000000</i>
   <i name="OFIELD_Q6_FAR">      0.00000000</i>
   <i name="OFIELD_A">      0.00000000</i>
  </separator>
  <separator name="optional k-points parameters" >
   <i type="int" name="KPOINTS_OPT_MODE">     1</i>
   <i type="logical" name="LKPOINTS_OPT"> F  </i>
  </separator>
  <separator name="solvation model" >
   <i type="logical" name="LSOL"> F  </i>
  </separator>
 </parameters>
 <atominfo>
  <atoms>      96 </atoms>
  <types>       2 </types>
  <array name="atoms" >
   <dimension dim="1">ion</dimension>
   <field type="string">element</field>
   <field type="int">atomtype</field>
   <set>
    <rc><c>C </c><c>   1</c></rc>
    <rc><c>C </c><c>   1</c></rc>
    <rc><c>C </c><c>   1</c></rc>
    <rc><c>C </c><c>   1</c></rc>
    <rc><c>C </c><c>   1</c></rc>
    <rc><c>C </c><c>   1</c></rc>
    <rc><c>C </c><c>   1</c></rc>
    <rc><c>C </c><c>   1</c></rc>
    <rc><c>C </c><c>   1</c></rc>
    <rc><c>C </c><c>   1</c></rc>
    <rc><c>C </c><c>   1</c></rc>
    <rc><c>C </c><c>   1</c></rc>
    <rc><c>C </c><c>   1</c></rc>
    <rc><c>C </c><c>   1</c></rc>
    <rc><c>C </c><c>   1</c></rc>
    <rc><c>C </c><c>   1</c></rc>
    <rc><c>C </c><c>   1</c></rc>
    <rc><c>C </c><c>   1</c></rc>
    <rc><c>C </c><c>   1</c></rc>
    <rc><c>C </c><c>   1</c></rc>
    <rc><c>C </c><c>   1</c></rc>
    <rc><c>C </c><c>   1</c></rc>
    <rc><c>C </c><c>   1</c></rc>
    <rc><c>C </c><c>   1</c></rc>
    <rc><c>C </c><c>   1</c></rc>
    <rc><c>C </c><c>   1</c></rc>
    <rc><c>C </c><c>   1</c></rc>
    <rc><c>C </c><c>   1</c></rc>
    <rc><c>C </c><c>   1</c></rc>
    <rc><c>C </c><c>   1</c></rc>
    <rc><c>C </c><c>   1</c></rc>
    <rc><c>C </c><c>   1</c></rc>
    <rc><c>C </c><c>   1</c></rc>
    <rc><c>C </c><c>   1</c></rc>
    <rc><c>C </c><c>   1</c></rc>
    <rc><c>C </c><c>   1</c></rc>
    <rc><c>C </c><c>   1</c></rc>
    <rc><c>C </c><c>   1</c></rc>
    <rc><c>C </c><c>   1</c></rc>
    <rc><c>C </c><c>   1</c></rc>
    <rc><c>C </c><c>   1</c></rc>
    <rc><c>C </c><c>   1</c></rc>
    <rc><c>C </c><c>   1</c></rc>
    <rc><c>C </c><c>   1</c></rc>
    <rc><c>C </c><c>   1</c></rc>
    <rc><c>C </c><c>   1</c></rc>
    <rc><c>C </c><c>   1</c></rc>
    <rc><c>C </c><c>   1</c></rc>
    <rc><c>Si</c><c>   2</c></rc>
    <rc><c>Si</c><c>   2</c></rc>
    <rc><c>Si</c><c>   2</c></rc>
    <rc><c>Si</c><c>   2</c></rc>
    <rc><c>Si</c><c>   2</c></rc>
    <rc><c>Si</c><c>   2</c></rc>
    <rc><c>Si</c><c>   2</c></rc>
    <rc><c>Si</c><c>   2</c></rc>
    <rc><c>Si</c><c>   2</c></rc>
    <rc><c>Si</c><c>   2</c></rc>
    <rc><c>Si</c><c>   2</c></rc>
    <rc><c>Si</c><c>   2</c></rc>
    <rc><c>Si</c><c>   2</c></rc>
    <rc><c>Si</c><c>   2</c></rc>
    <rc><c>Si</c><c>   2</c></rc>
    <rc><c>Si</c><c>   2</c></rc>
    <rc><c>Si</c><c>   2</c></rc>
    <rc><c>Si</c><c>   2</c></rc>
    <rc><c>Si</c><c>   2</c></rc>
    <rc><c>Si</c><c>   2</c></rc>
    <rc><c>Si</c><c>   2</c></rc>
    <rc><c>Si</c><c>   2</c></rc>
    <rc><c>Si</c><c>   2</c></rc>
    <rc><c>Si</c><c>   2</c></rc>
    <rc><c>Si</c><c>   2</c></rc>
    <rc><c>Si</c><c>   2</c></rc>
    <rc><c>Si</c><c>   2</c></rc>
    <rc><c>Si</c><c>   2</c></rc>
    <rc><c>Si</c><c>   2</c></rc>
    <rc><c>Si</c><c>   2</c></rc>
    <rc><c>Si</c><c>   2</c></rc>
    <rc><c>Si</c><c>   2</c></rc>
    <rc><c>Si</c><c>   2</c></rc>
    <rc><c>Si</c><c>   2</c></rc>
    <rc><c>Si</c><c>   2</c></rc>
    <rc><c>Si</c><c>   2</c></rc>
    <rc><c>Si</c><c>   2</c></rc>
    <rc><c>Si</c><c>   2</c></rc>
    <rc><c>Si</c><c>   2</c></rc>
    <rc><c>Si</c><c>   2</c></rc>
    <rc><c>Si</c><c>   2</c></rc>
    <rc><c>Si</c><c>   2</c></rc>
    <rc><c>Si</c><c>   2</c></rc>
    <rc><c>Si</c><c>   2</c></rc>
    <rc><c>Si</c><c>   2</c></rc>
    <rc><c>Si</c><c>   2</c></rc>
    <rc><c>Si</c><c>   2</c></rc>
    <rc><c>Si</c><c>   2</c></rc>
   </set>
  </array>
  <array name="atomtypes" >
   <dimension dim="1">type</dimension>
   <field type="int">atomspertype</field>
   <field type="string">element</field>
   <field>mass</field>
   <field>valence</field>
   <field type="string">pseudopotential</field>
   <set>
    <rc><c>  48</c><c>C </c><c>     12.01100000</c><c>      4.00000000</c><c> PAW_PBE C 08Apr2002                    </c></rc>
    <rc><c>  48</c><c>Si</c><c>     28.08500000</c><c>      4.00000000</c><c> PAW_PBE Si 05Jan2001                   </c></rc>
   </set>
  </array>
 </atominfo>
 <structure name="initialpos" >
  <crystal>
   <varray name="basis" >
    <v>       9.28425000       0.00000000       0.00000000 </v>
    <v>       0.00000000      10.72052800       0.00000000 </v>
    <v>       0.00000000       0.00000000      19.49580100 </v>
   </varray>
   <i name="volume">   1940.45727551 </i>
   <varray name="rec_basis" >
    <v>       0.10770929       0.00000000       0.00000000 </v>
    <v>       0.00000000       0.09327899       0.00000000 </v>
    <v>       0.00000000       0.00000000       0.05129310 </v>
   </varray>
  </crystal>
  <varray name="positions" >
   <v>       0.00000000       0.00000000       0.00000000 </v>
   <v>       0.16666700       0.25000000       0.00000000 </v>
   <v>       0.00000000       0.00000000       0.38944500 </v>
   <v>       0.16666700       0.25000000       0.38944500 </v>
   <v>       0.00000000       0.16666600       0.13018000 </v>
   <v>       0.16666700       0.41666600       0.13018000 </v>
   <v>       0.00000000       0.33333400       0.25985200 </v>
   <v>       0.16666700       0.08333300       0.25985200 </v>
   <v>       0.33333300       0.00000000       0.00000000 </v>
   <v>       0.50000000       0.25000000       0.00000000 </v>
   <v>       0.33333300       0.00000000       0.38944500 </v>
   <v>       0.50000000       0.25000000       0.38944500 </v>
   <v>       0.33333300       0.16666600       0.13018000 </v>
   <v>       0.50000000       0.41666600       0.13018000 </v>
   <v>       0.33333300       0.33333400       0.25985200 </v>
   <v>       0.50000000       0.08333300       0.25985200 </v>
   <v>       0.66666700       0.00000000       0.00000000 </v>
   <v>       0.83333300       0.25000000       0.00000000 </v>
   <v>       0.66666700       0.00000000       0.38944500 </v>
   <v>       0.83333300       0.25000000       0.38944500 </v>
   <v>       0.66666700       0.16666600       0.13018000 </v>
   <v>       0.83333300       0.41666600       0.13018000 </v>
   <v>       0.66666700       0.33333400       0.25985200 </v>
   <v>       0.83333300       0.08333400       0.25985200 </v>
   <v>       0.00000000       0.50000000       0.00000000 </v>
   <v>       0.16666700       0.75000000       0.00000000 </v>
   <v>       0.00000000       0.50000000       0.38944500 </v>
   <v>       0.16666700       0.75000000       0.38944500 </v>
   <v>       0.00000000       0.66666600       0.13018000 </v>
   <v>       0.16666700       0.91666600       0.13018000 </v>
   <v>       0.00000000       0.83333400       0.25985200 </v>
   <v>       0.16666700       0.58333400       0.25985200 </v>
   <v>       0.33333300       0.50000000       0.00000000 </v>
   <v>       0.50000000       0.75000000       0.00000000 </v>
   <v>       0.33333300       0.50000000       0.38944500 </v>
   <v>       0.50000000       0.75000000       0.38944500 </v>
   <v>       0.33333300       0.66666600       0.13018000 </v>
   <v>       0.50000000       0.91666700       0.13018000 </v>
   <v>       0.33333300       0.83333400       0.25985200 </v>
   <v>       0.50000000       0.58333400       0.25985200 </v>
   <v>       0.66666700       0.50000000       0.00000000 </v>
   <v>       0.83333300       0.75000000       0.00000000 </v>
   <v>       0.66666700       0.50000000       0.38944500 </v>
   <v>       0.83333300       0.75000000       0.38944500 </v>
   <v>       0.66666700       0.66666600       0.13018000 </v>
   <v>       0.83333300       0.91666700       0.13018000 </v>
   <v>       0.66666700       0.83333400       0.25985200 </v>
   <v>       0.83333300       0.58333400       0.25985200 </v>
   <v>       0.00000000       0.00000000       0.09762400 </v>
   <v>       0.16666700       0.25000000       0.09762400 </v>
   <v>       0.00000000       0.00000000       0.48706900 </v>
   <v>       0.16666700       0.25000000       0.48706900 </v>
   <v>       0.00000000       0.16666600       0.22753200 </v>
   <v>       0.16666700       0.41666600       0.22753200 </v>
   <v>       0.00000000       0.33333400       0.35720700 </v>
   <v>       0.16666700       0.08333300       0.35720700 </v>
   <v>       0.33333300       0.00000000       0.09762400 </v>
   <v>       0.50000000       0.25000000       0.09762400 </v>
   <v>       0.33333300       0.00000000       0.48706900 </v>
   <v>       0.50000000       0.25000000       0.48706900 </v>
   <v>       0.33333300       0.16666600       0.22753200 </v>
   <v>       0.50000000       0.41666600       0.22753200 </v>
   <v>       0.33333300       0.33333400       0.35720700 </v>
   <v>       0.50000000       0.08333300       0.35720700 </v>
   <v>       0.66666700       0.00000000       0.09762400 </v>
   <v>       0.83333300       0.25000000       0.09762400 </v>
   <v>       0.66666700       0.00000000       0.48706900 </v>
   <v>       0.83333300       0.25000000       0.48706900 </v>
   <v>       0.66666700       0.16666600       0.22753200 </v>
   <v>       0.83333300       0.41666600       0.22753200 </v>
   <v>       0.66666700       0.33333400       0.35720700 </v>
   <v>       0.83333300       0.08333400       0.35720700 </v>
   <v>       0.00000000       0.50000000       0.09762400 </v>
   <v>       0.16666700       0.75000000       0.09762400 </v>
   <v>       0.00000000       0.50000000       0.48706900 </v>
   <v>       0.16666700       0.75000000       0.48706900 </v>
   <v>       0.00000000       0.66666600       0.22753200 </v>
   <v>       0.16666700       0.91666600       0.22753200 </v>
   <v>       0.00000000       0.83333400       0.35720700 </v>
   <v>       0.16666700       0.58333400       0.35720700 </v>
   <v>       0.33333300       0.50000000       0.09762400 </v>
   <v>       0.50000000       0.75000000       0.09762400 </v>
   <v>       0.33333300       0.50000000       0.48706900 </v>
   <v>       0.50000000       0.75000000       0.48706900 </v>
   <v>       0.33333300       0.66666600       0.22753200 </v>
   <v>       0.50000000       0.91666700       0.22753200 </v>
   <v>       0.33333300       0.83333400       0.35720700 </v>
   <v>       0.50000000       0.58333400       0.35720700 </v>
   <v>       0.66666700       0.50000000       0.09762400 </v>
   <v>       0.83333300       0.75000000       0.09762400 </v>
   <v>       0.66666700       0.50000000       0.48706900 </v>
   <v>       0.83333300       0.75000000       0.48706900 </v>
   <v>       0.66666700       0.66666600       0.22753200 </v>
   <v>       0.83333300       0.91666700       0.22753200 </v>
   <v>       0.66666700       0.83333400       0.35720700 </v>
   <v>       0.83333300       0.58333400       0.35720700 </v>
  </varray>
  <varray name="selective"  type="logical" >
   <v type="logical" >  F  F  F </v>
   <v type="logical" >  F  F  F </v>
   <v type="logical" >  F  F  F </v>
   <v type="logical" >  F  F  F </v>
   <v type="logical" >  F  F  F </v>
   <v type="logical" >  F  F  F </v>
   <v type="logical" >  F  F  F </v>
   <v type="logical" >  F  F  F </v>
   <v type="logical" >  F  F  F </v>
   <v type="logical" >  F  F  F </v>
   <v type="logical" >  F  F  F </v>
   <v type="logical" >  F  F  F </v>
   <v type="logical" >  F  F  F </v>
   <v type="logical" >  F  F  F </v>
   <v type="logical" >  F  F  F </v>
   <v type="logical" >  F  F  F </v>
   <v type="logical" >  F  F  F </v>
   <v type="logical" >  F  F  F </v>
   <v type="logical" >  F  F  F </v>
   <v type="logical" >  F  F  F </v>
   <v type="logical" >  F  F  F </v>
   <v type="logical" >  F  F  F </v>
   <v type="logical" >  F  F  F </v>
   <v type="logical" >  F  F  F </v>
   <v type="logical" >  F  F  F </v>
   <v type="logical" >  F  F  F </v>
   <v type="logical" >  F  F  F </v>
   <v type="logical" >  F  F  F </v>
   <v type="logical" >  F  F  F </v>
   <v type="logical" >  F  F  F </v>
   <v type="logical" >  F  F  F </v>
   <v type="logical" >  F  F  F </v>
   <v type="logical" >  F  F  F </v>
   <v type="logical" >  F  F  F </v>
   <v type="logical" >  F  F  F </v>
   <v type="logical" >  F  F  F </v>
   <v type="logical" >  F  F  F </v>
   <v type="logical" >  F  F  F </v>
   <v type="logical" >  F  F  F </v>
   <v type="logical" >  F  F  F </v>
   <v type="logical" >  F  F  F </v>
   <v type="logical" >  F  F  F </v>
   <v type="logical" >  F  F  F </v>
   <v type="logical" >  F  F  F </v>
   <v type="logical" >  F  F  F </v>
   <v type="logical" >  F  F  F </v>
   <v type="logical" >  F  F  F </v>
   <v type="logical" >  F  F  F </v>
   <v type="logical" >  F  F  F </v>
   <v type="logical" >  F  F  F </v>
   <v type="logical" >  T  T  T </v>
   <v type="logical" >  T  T  T </v>
   <v type="logical" >  F  F  F </v>
   <v type="logical" >  F  F  F </v>
   <v type="logical" >  F  F  F </v>
   <v type="logical" >  F  F  F </v>
   <v type="logical" >  F  F  F </v>
   <v type="logical" >  F  F  F </v>
   <v type="logical" >  T  T  T </v>
   <v type="logical" >  T  T  T </v>
   <v type="logical" >  F  F  F </v>
   <v type="logical" >  F  F  F </v>
   <v type="logical" >  F  F  F </v>
   <v type="logical" >  F  F  F </v>
   <v type="logical" >  F  F  F </v>
   <v type="logical" >  F  F  F </v>
   <v type="logical" >  T  T  T </v>
   <v type="logical" >  T  T  T </v>
   <v type="logical" >  F  F  F </v>
   <v type="logical" >  F  F  F </v>
   <v type="logical" >  F  F  F </v>
   <v type="logical" >  F  F  F </v>
   <v type="logical" >  F  F  F </v>
   <v type="logical" >  F  F  F </v>
   <v type="logical" >  T  T  T </v>
   <v type="logical" >  T  T  T </v>
   <v type="logical" >  F  F  F </v>
   <v type="logical" >  F  F  F </v>
   <v type="logical" >  F  F  F </v>
   <v type="logical" >  F  F  F </v>
   <v type="logical" >  F  F  F </v>
   <v type="logical" >  F  F  F </v>
   <v type="logical" >  T  T  T </v>
   <v type="logical" >  T  T  T </v>
   <v type="logical" >  F  F  F </v>
   <v type="logical" >  F  F  F </v>
   <v type="logical" >  F  F  F </v>
   <v type="logical" >  F  F  F </v>
   <v type="logical" >  F  F  F </v>
   <v type="logical" >  F  F  F </v>
   <v type="logical" >  T  T  T </v>
   <v type="logical" >  T  T  T </v>
   <v type="logical" >  F  F  F </v>
   <v type="logical" >  F  F  F </v>
   <v type="logical" >  F  F  F </v>
   <v type="logical" >  F  F  F </v>
  </varray>
  <nose>
   <v>      -3.00000000       0.00000000       0.00010000       0.00010000 </v>
  </nose>
 </structure>
 <calculation>
  <scstep>
   <time name="dav">   41.44    6.07</time>
   <time name="total">   51.68    7.64</time>
   <energy>
    <i name="alphaZ">    273.43042677 </i>
    <i name="ewald">  34865.15399455 </i>
    <i name="hartreedc"> -46505.54196525 </i>
    <i name="XCdc">    209.36879182 </i>
    <i name="pawpsdc">   3398.83426340 </i>
    <i name="pawaedc">  -2609.57693563 </i>
    <i name="eentropy">     -0.08651847 </i>
    <i name="bandstr">    381.50878030 </i>
    <i name="atom">  12010.34264613 </i>
    <i name="e_fr_energy">   2023.43348361 </i>
    <i name="e_wo_entrp">   2023.52000208 </i>
    <i name="e_0_energy">   2023.47674285 </i>
   </energy>
  </scstep>
  <scstep>
   <time name="dav">   49.98    7.15</time>
   <time name="total">   50.00    7.15</time>
   <energy>
    <i name="e_fr_energy">   -389.45194731 </i>
    <i name="e_wo_entrp">   -389.39064665 </i>
    <i name="e_0_energy">   -389.42129698 </i>
   </energy>
  </scstep>
  <scstep>
   <time name="dav">   50.85    7.34</time>
   <time name="total">   50.87    7.35</time>
   <energy>
    <i name="e_fr_energy">   -695.96376907 </i>
    <i name="e_wo_entrp">   -695.84311725 </i>
    <i name="e_0_energy">   -695.90344316 </i>
   </energy>
  </scstep>
  <scstep>
   <time name="dav">   54.50    7.81</time>
   <time name="total">   54.52    7.81</time>
   <energy>
    <i name="e_fr_energy">   -713.63762990 </i>
    <i name="e_wo_entrp">   -713.51355255 </i>
    <i name="e_0_energy">   -713.57559122 </i>
   </energy>
  </scstep>
  <scstep>
   <time name="dav">   53.31    7.65</time>
   <time name="total">   57.31    8.40</time>
   <energy>
    <i name="e_fr_energy">   -714.21830328 </i>
    <i name="e_wo_entrp">   -714.09427679 </i>
    <i name="e_0_energy">   -714.15629004 </i>
   </energy>
  </scstep>
  <scstep>
   <time name="diag">    3.16    0.63</time>
   <time name="diis">    6.15    2.66</time>
   <time name="orth">    0.13    0.06</time>
   <time name="total">   22.01    5.54</time>
   <energy>
    <i name="e_fr_energy">   -636.18030007 </i>
    <i name="e_wo_entrp">   -636.00900003 </i>
    <i name="e_0_energy">   -636.09465005 </i>
   </energy>
  </scstep>
  <scstep>
   <time name="diag">    3.15    0.63</time>
   <time name="diis">    6.44    2.80</time>
   <time name="orth">    0.13    0.06</time>
   <time name="total">   22.43    5.71</time>
   <energy>
    <i name="e_fr_energy">   -637.99117537 </i>
    <i name="e_wo_entrp">   -637.86735524 </i>
    <i name="e_0_energy">   -637.92926531 </i>
   </energy>
  </scstep>
  <scstep>
   <time name="diag">    3.20    0.63</time>
   <time name="diis">    6.63    2.90</time>
   <time name="orth">    0.13    0.06</time>
   <time name="total">   22.54    5.79</time>
   <energy>
    <i name="e_fr_energy">   -636.67152481 </i>
    <i name="e_wo_entrp">   -636.56720539 </i>
    <i name="e_0_energy">   -636.61936510 </i>
   </energy>
  </scstep>
  <scstep>
   <time name="diag">    3.06    0.63</time>
   <time name="diis">    6.26    2.71</time>
   <time name="orth">    0.13    0.06</time>
   <time name="total">   22.10    5.61</time>
   <energy>
    <i name="e_fr_energy">   -636.48196772 </i>
    <i name="e_wo_entrp">   -636.36607665 </i>
    <i name="e_0_energy">   -636.42402219 </i>
   </energy>
  </scstep>
  <scstep>
   <time name="diag">    3.17    0.63</time>
   <time name="diis">    6.27    2.72</time>
   <time name="orth">    0.13    0.06</time>
   <time name="total">   22.11    5.60</time>
   <energy>
    <i name="e_fr_energy">   -635.97739306 </i>
    <i name="e_wo_entrp">   -635.86588969 </i>
    <i name="e_0_energy">   -635.92164137 </i>
   </energy>
  </scstep>
  <scstep>
   <time name="diag">    3.15    0.63</time>
   <time name="diis">    6.30    2.74</time>
   <time name="orth">    0.13    0.06</time>
   <time name="total">   22.16    5.62</time>
   <energy>
    <i name="e_fr_energy">   -635.96984811 </i>
    <i name="e_wo_entrp">   -635.85881013 </i>
    <i name="e_0_energy">   -635.91432912 </i>
   </energy>
  </scstep>
  <scstep>
   <time name="diag">    3.17    0.63</time>
   <time name="diis">    6.22    2.69</time>
   <time name="orth">    0.13    0.06</time>
   <time name="total">   22.12    5.58</time>
   <energy>
    <i name="e_fr_energy">   -635.95114953 </i>
    <i name="e_wo_entrp">   -635.83862391 </i>
    <i name="e_0_energy">   -635.89488672 </i>
   </energy>
  </scstep>
  <scstep>
   <time name="diag">    3.16    0.63</time>
   <time name="diis">    7.83    3.51</time>
   <time name="orth">    0.13    0.06</time>
   <time name="total">   23.81    6.40</time>
   <energy>
    <i name="e_fr_energy">   -635.95576034 </i>
    <i name="e_wo_entrp">   -635.84273751 </i>
    <i name="e_0_energy">   -635.89924892 </i>
   </energy>
  </scstep>
  <scstep>
   <time name="diag">    3.17    0.63</time>
   <time name="diis">    6.37    2.76</time>
   <time name="orth">    0.13    0.06</time>
   <time name="total">   22.42    5.67</time>
   <energy>
    <i name="e_fr_energy">   -635.96541343 </i>
    <i name="e_wo_entrp">   -635.85115695 </i>
    <i name="e_0_energy">   -635.90828519 </i>
   </energy>
  </scstep>
  <scstep>
   <time name="diag">    3.17    0.63</time>
   <time name="diis">    6.47    2.82</time>
   <time name="orth">    0.13    0.06</time>
   <time name="total">   22.55    5.73</time>
   <energy>
    <i name="e_fr_energy">   -635.97665648 </i>
    <i name="e_wo_entrp">   -635.86181555 </i>
    <i name="e_0_energy">   -635.91923601 </i>
   </energy>
  </scstep>
  <scstep>
   <time name="diag">    3.16    0.63</time>
   <time name="diis">    6.45    2.81</time>
   <time name="orth">    0.13    0.06</time>
   <time name="total">   22.54    5.73</time>
   <energy>
    <i name="e_fr_energy">   -635.97208859 </i>
    <i name="e_wo_entrp">   -635.85758366 </i>
    <i name="e_0_energy">   -635.91483612 </i>
   </energy>
  </scstep>
  <scstep>
   <time name="diag">    3.07    0.64</time>
   <time name="diis">    6.32    2.75</time>
   <time name="orth">    0.13    0.06</time>
   <time name="total">   22.44    5.70</time>
   <energy>
    <i name="e_fr_energy">   -635.97321063 </i>
    <i name="e_wo_entrp">   -635.85881583 </i>
    <i name="e_0_energy">   -635.91601323 </i>
   </energy>
  </scstep>
  <scstep>
   <time name="diag">    3.21    0.63</time>
   <time name="diis">    6.34    2.75</time>
   <time name="orth">    0.13    0.06</time>
   <time name="total">   22.68    5.71</time>
   <energy>
    <i name="e_fr_energy">   -635.97496615 </i>
    <i name="e_wo_entrp">   -635.86079393 </i>
    <i name="e_0_energy">   -635.91788004 </i>
   </energy>
  </scstep>
  <scstep>
   <time name="diag">    3.10    0.63</time>
   <time name="diis">    6.79    2.98</time>
   <time name="orth">    0.13    0.06</time>
   <time name="total">   22.89    5.90</time>
   <energy>
    <i name="e_fr_energy">   -635.97604795 </i>
    <i name="e_wo_entrp">   -635.86192274 </i>
    <i name="e_0_energy">   -635.91898535 </i>
   </energy>
  </scstep>
  <scstep>
   <time name="diag">    3.21    0.64</time>
   <time name="diis">    6.62    2.92</time>
   <time name="orth">    0.13    0.06</time>
   <time name="total">   22.80    5.84</time>
   <energy>
    <i name="e_fr_energy">   -635.97673883 </i>
    <i name="e_wo_entrp">   -635.86273256 </i>
    <i name="e_0_energy">   -635.91973570 </i>
   </energy>
  </scstep>
  <scstep>
   <time name="diag">    3.22    0.63</time>
   <time name="diis">    6.21    2.69</time>
   <time name="orth">    0.13    0.06</time>
   <time name="total">   22.45    5.63</time>
   <energy>
    <i name="e_fr_energy">   -635.97681343 </i>
    <i name="e_wo_entrp">   -635.86283329 </i>
    <i name="e_0_energy">   -635.91982336 </i>
   </energy>
  </scstep>
  <scstep>
   <time name="diag">    3.19    0.63</time>
   <time name="diis">    6.68    2.91</time>
   <time name="orth">    0.12    0.06</time>
   <time name="total">   22.87    5.83</time>
   <energy>
    <i name="e_fr_energy">   -635.97699652 </i>
    <i name="e_wo_entrp">   -635.86304842 </i>
    <i name="e_0_energy">   -635.92002247 </i>
   </energy>
  </scstep>
  <scstep>
   <time name="diag">    3.22    0.63</time>
   <time name="diis">    6.08    2.64</time>
   <time name="orth">    0.13    0.06</time>
   <time name="total">   22.41    5.58</time>
   <energy>
    <i name="e_fr_energy">   -635.97697631 </i>
    <i name="e_wo_entrp">   -635.86302241 </i>
    <i name="e_0_energy">   -635.91999936 </i>
   </energy>
  </scstep>
  <scstep>
   <time name="diag">    3.23    0.63</time>
   <time name="diis">    6.25    2.72</time>
   <time name="orth">    0.13    0.06</time>
   <time name="total">   22.69    5.68</time>
   <energy>
    <i name="e_fr_energy">   -635.97698659 </i>
    <i name="e_wo_entrp">   -635.86302741 </i>
    <i name="e_0_energy">   -635.92000700 </i>
   </energy>
  </scstep>
  <scstep>
   <time name="diag">    3.21    0.63</time>
   <time name="diis">    6.61    2.89</time>
   <time name="orth">    0.13    0.06</time>
   <time name="total">   23.07    5.85</time>
   <energy>
    <i name="e_fr_energy">   -635.97699406 </i>
    <i name="e_wo_entrp">   -635.86303456 </i>
    <i name="e_0_energy">   -635.92001431 </i>
   </energy>
  </scstep>
  <scstep>
   <time name="diag">    3.16    0.63</time>
   <time name="diis">    4.24    1.70</time>
   <time name="orth">    0.13    0.06</time>
   <time name="total">   20.70    4.66</time>
   <energy>
    <i name="e_fr_energy">   -635.97699637 </i>
    <i name="e_wo_entrp">   -635.86303913 </i>
    <i name="e_0_energy">   -635.92001775 </i>
   </energy>
  </scstep>
  <scstep>
   <time name="diag">    3.16    0.63</time>
   <time name="diis">    4.44    1.80</time>
   <time name="orth">    0.13    0.06</time>
   <time name="total">   20.92    4.76</time>
   <energy>
    <i name="e_fr_energy">   -635.97699783 </i>
    <i name="e_wo_entrp">   -635.86304140 </i>
    <i name="e_0_energy">   -635.92001962 </i>
   </energy>
  </scstep>
  <scstep>
   <time name="diag">    3.18    0.63</time>
   <time name="diis">    4.14    1.64</time>
   <time name="orth">    0.12    0.06</time>
   <time name="total">   17.09    3.81</time>
   <energy>
    <i name="alphaZ">    273.43042677 </i>
    <i name="ewald">  34865.15399455 </i>
    <i name="hartreedc"> -47107.54918795 </i>
    <i name="XCdc">    249.82344203 </i>
    <i name="pawpsdc">   4479.71230984 </i>
    <i name="pawaedc">  -3698.04981615 </i>
    <i name="eentropy">     -0.11395650 </i>
    <i name="bandstr">  -1708.72685667 </i>
    <i name="atom">  12010.34264613 </i>
    <i name="e_fr_energy">   -635.97699796 </i>
    <i name="e_wo_entrp">   -635.86304145 </i>
    <i name="e_0_energy">   -635.92001970 </i>
   </energy>
  </scstep>
  <structure>
   <crystal>
    <varray name="basis" >
     <v>       9.28425000       0.00000000       0.00000000 </v>
     <v>       0.00000000      10.72052800       0.00000000 </v>
     <v>       0.00000000       0.00000000      19.49580100 </v>
    </varray>
    <i name="volume">   1940.45727551 </i>
    <varray name="rec_basis" >
     <v>       0.10770929       0.00000000       0.00000000 </v>
     <v>       0.00000000       0.09327899       0.00000000 </v>
     <v>       0.00000000       0.00000000       0.05129310 </v>
    </varray>
   </crystal>
   <varray name="positions" >
    <v>       0.00000000       0.00000000       0.00000000 </v>
    <v>       0.16666700       0.25000000       0.00000000 </v>
    <v>       0.00000000       0.00000000       0.38944500 </v>
    <v>       0.16666700       0.25000000       0.38944500 </v>
    <v>       0.00000000       0.16666600       0.13018000 </v>
    <v>       0.16666700       0.41666600       0.13018000 </v>
    <v>       0.00000000       0.33333400       0.25985200 </v>
    <v>       0.16666700       0.08333300       0.25985200 </v>
    <v>       0.33333300       0.00000000       0.00000000 </v>
    <v>       0.50000000       0.25000000       0.00000000 </v>
    <v>       0.33333300       0.00000000       0.38944500 </v>
    <v>       0.50000000       0.25000000       0.38944500 </v>
    <v>       0.33333300       0.16666600       0.13018000 </v>
    <v>       0.50000000       0.41666600       0.13018000 </v>
    <v>       0.33333300       0.33333400       0.25985200 </v>
    <v>       0.50000000       0.08333300       0.25985200 </v>
    <v>       0.66666700       0.00000000       0.00000000 </v>
    <v>       0.83333300       0.25000000       0.00000000 </v>
    <v>       0.66666700       0.00000000       0.38944500 </v>
    <v>       0.83333300       0.25000000       0.38944500 </v>
    <v>       0.66666700       0.16666600       0.13018000 </v>
    <v>       0.83333300       0.41666600       0.13018000 </v>
    <v>       0.66666700       0.33333400       0.25985200 </v>
    <v>       0.83333300       0.08333400       0.25985200 </v>
    <v>       0.00000000       0.50000000       0.00000000 </v>
    <v>       0.16666700       0.75000000       0.00000000 </v>
    <v>       0.00000000       0.50000000       0.38944500 </v>
    <v>       0.16666700       0.75000000       0.38944500 </v>
    <v>       0.00000000       0.66666600       0.13018000 </v>
    <v>       0.16666700       0.91666600       0.13018000 </v>
    <v>       0.00000000       0.83333400       0.25985200 </v>
    <v>       0.16666700       0.58333400       0.25985200 </v>
    <v>       0.33333300       0.50000000       0.00000000 </v>
    <v>       0.50000000       0.75000000       0.00000000 </v>
    <v>       0.33333300       0.50000000       0.38944500 </v>
    <v>       0.50000000       0.75000000       0.38944500 </v>
    <v>       0.33333300       0.66666600       0.13018000 </v>
    <v>       0.50000000       0.91666700       0.13018000 </v>
    <v>       0.33333300       0.83333400       0.25985200 </v>
    <v>       0.50000000       0.58333400       0.25985200 </v>
    <v>       0.66666700       0.50000000       0.00000000 </v>
    <v>       0.83333300       0.75000000       0.00000000 </v>
    <v>       0.66666700       0.50000000       0.38944500 </v>
    <v>       0.83333300       0.75000000       0.38944500 </v>
    <v>       0.66666700       0.66666600       0.13018000 </v>
    <v>       0.83333300       0.91666700       0.13018000 </v>
    <v>       0.66666700       0.83333400       0.25985200 </v>
    <v>       0.83333300       0.58333400       0.25985200 </v>
    <v>       0.00000000       0.00000000       0.09762400 </v>
    <v>       0.16666700       0.25000000       0.09762400 </v>
    <v>       0.00000000       0.00000000       0.48706900 </v>
    <v>       0.16666700       0.25000000       0.48706900 </v>
    <v>       0.00000000       0.16666600       0.22753200 </v>
    <v>       0.16666700       0.41666600       0.22753200 </v>
    <v>       0.00000000       0.33333400       0.35720700 </v>
    <v>       0.16666700       0.08333300       0.35720700 </v>
    <v>       0.33333300       0.00000000       0.09762400 </v>
    <v>       0.50000000       0.25000000       0.09762400 </v>
    <v>       0.33333300       0.00000000       0.48706900 </v>
    <v>       0.50000000       0.25000000       0.48706900 </v>
    <v>       0.33333300       0.16666600       0.22753200 </v>
    <v>       0.50000000       0.41666600       0.22753200 </v>
    <v>       0.33333300       0.33333400       0.35720700 </v>
    <v>       0.50000000       0.08333300       0.35720700 </v>
    <v>       0.66666700       0.00000000       0.09762400 </v>
    <v>       0.83333300       0.25000000       0.09762400 </v>
    <v>       0.66666700       0.00000000       0.48706900 </v>
    <v>       0.83333300       0.25000000       0.48706900 </v>
    <v>       0.66666700       0.16666600       0.22753200 </v>
    <v>       0.83333300       0.41666600       0.22753200 </v>
    <v>       0.66666700       0.33333400       0.35720700 </v>
    <v>       0.83333300       0.08333400       0.35720700 </v>
    <v>       0.00000000       0.50000000       0.09762400 </v>
    <v>       0.16666700       0.75000000       0.09762400 </v>
    <v>       0.00000000       0.50000000       0.48706900 </v>
    <v>       0.16666700       0.75000000       0.48706900 </v>
    <v>       0.00000000       0.66666600       0.22753200 </v>
    <v>       0.16666700       0.91666600       0.22753200 </v>
    <v>       0.00000000       0.83333400       0.35720700 </v>
    <v>       0.16666700       0.58333400       0.35720700 </v>
    <v>       0.33333300       0.50000000       0.09762400 </v>
    <v>       0.50000000       0.75000000       0.09762400 </v>
    <v>       0.33333300       0.50000000       0.48706900 </v>
    <v>       0.50000000       0.75000000       0.48706900 </v>
    <v>       0.33333300       0.66666600       0.22753200 </v>
    <v>       0.50000000       0.91666700       0.22753200 </v>
    <v>       0.33333300       0.83333400       0.35720700 </v>
    <v>       0.50000000       0.58333400       0.35720700 </v>
    <v>       0.66666700       0.50000000       0.09762400 </v>
    <v>       0.83333300       0.75000000       0.09762400 </v>
    <v>       0.66666700       0.50000000       0.48706900 </v>
    <v>       0.83333300       0.75000000       0.48706900 </v>
    <v>       0.66666700       0.66666600       0.22753200 </v>
    <v>       0.83333300       0.91666700       0.22753200 </v>
    <v>       0.66666700       0.83333400       0.35720700 </v>
    <v>       0.83333300       0.58333400       0.35720700 </v>
   </varray>
  </structure>
  <varray name="forces" >
   <v>       0.00000000      -0.00650140      -0.19435459 </v>
   <v>       0.00000000      -0.00650140      -0.19435459 </v>
   <v>       0.00000000      -0.01217537       0.17459130 </v>
   <v>      -0.00000000      -0.01217537       0.17459130 </v>
   <v>       0.00000000      -0.00316670       0.06400531 </v>
   <v>      -0.00000000      -0.00316670       0.06400531 </v>
   <v>      -0.00000000       0.00699336       0.08579502 </v>
   <v>       0.00000000       0.00699336       0.08579502 </v>
   <v>      -0.00000000      -0.00650140      -0.19435459 </v>
   <v>       0.00000000      -0.00650140      -0.19435459 </v>
   <v>       0.00000000      -0.01217537       0.17459130 </v>
   <v>       0.00000000      -0.01217537       0.17459130 </v>
   <v>       0.00000000      -0.00316670       0.06400531 </v>
   <v>      -0.00000000      -0.00316670       0.06400531 </v>
   <v>      -0.00000000       0.00699336       0.08579502 </v>
   <v>      -0.00000000       0.00699336       0.08579502 </v>
   <v>       0.00000000      -0.00650140      -0.19435459 </v>
   <v>       0.00000000      -0.00650140      -0.19435459 </v>
   <v>       0.00000000      -0.01217537       0.17459130 </v>
   <v>       0.00000000      -0.01217537       0.17459130 </v>
   <v>      -0.00000000      -0.00316670       0.06400531 </v>
   <v>       0.00000000      -0.00316670       0.06400531 </v>
   <v>      -0.00000000       0.00699336       0.08579502 </v>
   <v>      -0.00000000       0.00699336       0.08579502 </v>
   <v>      -0.00000000      -0.00650140      -0.19435459 </v>
   <v>      -0.00000000      -0.00650140      -0.19435459 </v>
   <v>       0.00000000      -0.01217537       0.17459130 </v>
   <v>      -0.00000000      -0.01217537       0.17459130 </v>
   <v>       0.00000000      -0.00316670       0.06400531 </v>
   <v>      -0.00000000      -0.00316670       0.06400531 </v>
   <v>      -0.00000000       0.00699336       0.08579502 </v>
   <v>       0.00000000       0.00699336       0.08579502 </v>
   <v>       0.00000000      -0.00650140      -0.19435459 </v>
   <v>      -0.00000000      -0.00650140      -0.19435459 </v>
   <v>       0.00000000      -0.01217537       0.17459130 </v>
   <v>      -0.00000000      -0.01217537       0.17459130 </v>
   <v>       0.00000000      -0.00316670       0.06400531 </v>
   <v>      -0.00000000      -0.00316670       0.06400531 </v>
   <v>       0.00000000       0.00699336       0.08579502 </v>
   <v>       0.00000000       0.00699336       0.08579502 </v>
   <v>      -0.00000000      -0.00650140      -0.19435459 </v>
   <v>      -0.00000000      -0.00650140      -0.19435459 </v>
   <v>       0.00000000      -0.01217537       0.17459130 </v>
   <v>       0.00000000      -0.01217537       0.17459130 </v>
   <v>       0.00000000      -0.00316670       0.06400531 </v>
   <v>      -0.00000000      -0.00316670       0.06400531 </v>
   <v>      -0.00000000       0.00699336       0.08579502 </v>
   <v>      -0.00000000       0.00699336       0.08579502 </v>
   <v>       0.00000000       0.00866332       0.16452303 </v>
   <v>       0.00000000       0.00866332       0.16452303 </v>
   <v>      -0.00000000       0.00776663      -0.08539659 </v>
   <v>      -0.00000000       0.00776663      -0.08539659 </v>
   <v>       0.00000000      -0.00359196      -0.09890788 </v>
   <v>       0.00000000      -0.00359196      -0.09890788 </v>
   <v>       0.00000000       0.00201211      -0.11025560 </v>
   <v>      -0.00000000       0.00201211      -0.11025560 </v>
   <v>       0.00000000       0.00866332       0.16452303 </v>
   <v>      -0.00000000       0.00866332       0.16452303 </v>
   <v>      -0.00000000       0.00776663      -0.08539659 </v>
   <v>      -0.00000000       0.00776663      -0.08539659 </v>
   <v>      -0.00000000      -0.00359196      -0.09890788 </v>
   <v>       0.00000000      -0.00359196      -0.09890788 </v>
   <v>      -0.00000000       0.00201211      -0.11025560 </v>
   <v>       0.00000000       0.00201211      -0.11025560 </v>
   <v>       0.00000000       0.00866332       0.16452303 </v>
   <v>      -0.00000000       0.00866332       0.16452303 </v>
   <v>      -0.00000000       0.00776663      -0.08539659 </v>
   <v>      -0.00000000       0.00776663      -0.08539659 </v>
   <v>      -0.00000000      -0.00359196      -0.09890788 </v>
   <v>      -0.00000000      -0.00359196      -0.09890788 </v>
   <v>       0.00000000       0.00201211      -0.11025560 </v>
   <v>      -0.00000000       0.00201211      -0.11025560 </v>
   <v>      -0.00000000       0.00866332       0.16452303 </v>
   <v>      -0.00000000       0.00866332       0.16452303 </v>
   <v>      -0.00000000       0.00776663      -0.08539659 </v>
   <v>      -0.00000000       0.00776663      -0.08539659 </v>
   <v>       0.00000000      -0.00359196      -0.09890788 </v>
   <v>       0.00000000      -0.00359196      -0.09890788 </v>
   <v>       0.00000000       0.00201211      -0.11025560 </v>
   <v>      -0.00000000       0.00201211      -0.11025560 </v>
   <v>       0.00000000       0.00866332       0.16452303 </v>
   <v>       0.00000000       0.00866332       0.16452303 </v>
   <v>      -0.00000000       0.00776663      -0.08539659 </v>
   <v>      -0.00000000       0.00776663      -0.08539659 </v>
   <v>       0.00000000      -0.00359196      -0.09890788 </v>
   <v>       0.00000000      -0.00359196      -0.09890788 </v>
   <v>      -0.00000000       0.00201211      -0.11025560 </v>
   <v>      -0.00000000       0.00201211      -0.11025560 </v>
   <v>      -0.00000000       0.00866332       0.16452303 </v>
   <v>      -0.00000000       0.00866332       0.16452303 </v>
   <v>      -0.00000000       0.00776663      -0.08539659 </v>
   <v>      -0.00000000       0.00776663      -0.08539659 </v>
   <v>       0.00000000      -0.00359196      -0.09890788 </v>
   <v>       0.00000000      -0.00359196      -0.09890788 </v>
   <v>      -0.00000000       0.00201211      -0.11025560 </v>
   <v>      -0.00000000       0.00201211      -0.11025560 </v>
  </varray>
  <varray name="stress" >
   <v>     -38.47681763       0.00000000       0.00000000 </v>
   <v>       0.00000000     -39.71210286       0.30316744 </v>
   <v>       0.00000000       0.30316722       0.96936013 </v>
  </varray>
  <energy>
   <i name="e_fr_energy">   -635.97699796 </i>
   <i name="e_wo_entrp">   -635.86304145 </i>
   <i name="e_0_energy">   -635.92001970 </i>
  </energy>
  <time name="totalsc">  826.74  178.68</time>
 </calculation>
 <calculation>
  <scstep>
   <time name="dav">   45.34    6.49</time>
   <time name="total">   58.68    8.69</time>
   <energy>
    <i name="alphaZ">    273.43042677 </i>
    <i name="ewald">  34892.51826353 </i>
    <i name="hartreedc"> -47133.87423984 </i>
    <i name="XCdc">    249.91807166 </i>
    <i name="pawpsdc">   4479.71651069 </i>
    <i name="pawaedc">  -3698.05405936 </i>
    <i name="eentropy">     -0.11370092 </i>
    <i name="bandstr">  -1709.86347505 </i>
    <i name="atom">  12010.34264613 </i>
    <i name="e_fr_energy">   -635.97955638 </i>
    <i name="e_wo_entrp">   -635.86585546 </i>
    <i name="e_0_energy">   -635.92270592 </i>
   </energy>
  </scstep>
  <scstep>
   <time name="diag">    3.21    0.64</time>
   <time name="diis">    6.38    2.79</time>
   <time name="orth">    0.13    0.06</time>
   <time name="total">   22.38    5.69</time>
   <energy>
    <i name="e_fr_energy">   -635.97971588 </i>
    <i name="e_wo_entrp">   -635.86616530 </i>
    <i name="e_0_energy">   -635.92294059 </i>
   </energy>
  </scstep>
  <scstep>
   <time name="diag">    3.19    0.63</time>
   <time name="diis">    7.19    3.18</time>
   <time name="orth">    0.13    0.06</time>
   <time name="total">   23.11    6.07</time>
   <energy>
    <i name="e_fr_energy">   -635.97976178 </i>
    <i name="e_wo_entrp">   -635.86608496 </i>
    <i name="e_0_energy">   -635.92292337 </i>
   </energy>
  </scstep>
  <scstep>
   <time name="diag">    3.18    0.63</time>
   <time name="diis">    6.56    2.87</time>
   <time name="orth">    0.13    0.06</time>
   <time name="total">   22.63    5.78</time>
   <energy>
    <i name="e_fr_energy">   -635.97974751 </i>
    <i name="e_wo_entrp">   -635.86613652 </i>
    <i name="e_0_energy">   -635.92294202 </i>
   </energy>
  </scstep>
  <scstep>
   <time name="diag">    3.17    0.63</time>
   <time name="diis">    6.64    2.91</time>
   <time name="orth">    0.12    0.06</time>
   <time name="total">   22.69    5.82</time>
   <energy>
    <i name="e_fr_energy">   -635.97975279 </i>
    <i name="e_wo_entrp">   -635.86602958 </i>
    <i name="e_0_energy">   -635.92289118 </i>
   </energy>
  </scstep>
  <scstep>
   <time name="diag">    3.16    0.63</time>
   <time name="diis">    6.04    2.60</time>
   <time name="orth">    0.12    0.06</time>
   <time name="total">   21.98    5.49</time>
   <energy>
    <i name="e_fr_energy">   -635.97974109 </i>
    <i name="e_wo_entrp">   -635.86604593 </i>
    <i name="e_0_energy">   -635.92289351 </i>
   </energy>
  </scstep>
  <scstep>
   <time name="diag">    3.18    0.63</time>
   <time name="diis">    6.15    2.65</time>
   <time name="orth">    0.12    0.06</time>
   <time name="total">   22.08    5.53</time>
   <energy>
    <i name="e_fr_energy">   -635.97974060 </i>
    <i name="e_wo_entrp">   -635.86604562 </i>
    <i name="e_0_energy">   -635.92289311 </i>
   </energy>
  </scstep>
  <scstep>
   <time name="diag">    3.17    0.63</time>
   <time name="diis">    4.84    1.99</time>
   <time name="orth">    0.12    0.06</time>
   <time name="total">   20.81    4.89</time>
   <energy>
    <i name="e_fr_energy">   -635.97974288 </i>
    <i name="e_wo_entrp">   -635.86603998 </i>
    <i name="e_0_energy">   -635.92289143 </i>
   </energy>
  </scstep>
  <scstep>
   <time name="diag">    3.25    0.63</time>
   <time name="diis">    5.17    2.18</time>
   <time name="orth">    0.12    0.06</time>
   <time name="total">   21.29    5.09</time>
   <energy>
    <i name="e_fr_energy">   -635.97974955 </i>
    <i name="e_wo_entrp">   -635.86604870 </i>
    <i name="e_0_energy">   -635.92289913 </i>
   </energy>
  </scstep>
  <scstep>
   <time name="diag">    3.21    0.63</time>
   <time name="diis">    4.59    1.86</time>
   <time name="orth">    0.12    0.06</time>
   <time name="total">   20.72    4.78</time>
   <energy>
    <i name="e_fr_energy">   -635.97975891 </i>
    <i name="e_wo_entrp">   -635.86605879 </i>
    <i name="e_0_energy">   -635.92290885 </i>
   </energy>
  </scstep>
  <scstep>
   <time name="diag">    3.21    0.63</time>
   <time name="diis">    4.42    1.78</time>
   <time name="orth">    0.13    0.06</time>
   <time name="total">   20.56    4.70</time>
   <energy>
    <i name="e_fr_energy">   -635.97976739 </i>
    <i name="e_wo_entrp">   -635.86606593 </i>
    <i name="e_0_energy">   -635.92291666 </i>
   </energy>
  </scstep>
  <scstep>
   <time name="diag">    3.21    0.63</time>
   <time name="diis">    4.29    1.72</time>
   <time name="orth">    0.13    0.06</time>
   <time name="total">   20.49    4.65</time>
   <energy>
    <i name="e_fr_energy">   -635.97977965 </i>
    <i name="e_wo_entrp">   -635.86607928 </i>
    <i name="e_0_energy">   -635.92292947 </i>
   </energy>
  </scstep>
  <scstep>
   <time name="diag">    3.16    0.63</time>
   <time name="diis">    4.12    1.63</time>
   <time name="orth">    0.13    0.06</time>
   <time name="total">   20.38    4.57</time>
   <energy>
    <i name="e_fr_energy">   -635.97978237 </i>
    <i name="e_wo_entrp">   -635.86608145 </i>
    <i name="e_0_energy">   -635.92293191 </i>
   </energy>
  </scstep>
  <scstep>
   <time name="diag">    3.17    0.63</time>
   <time name="diis">    3.76    1.45</time>
   <time name="orth">    0.13    0.06</time>
   <time name="total">   16.72    3.63</time>
   <energy>
    <i name="alphaZ">    273.43042677 </i>
    <i name="ewald">  34892.51826353 </i>
    <i name="hartreedc"> -47133.09626729 </i>
    <i name="XCdc">    249.93750683 </i>
    <i name="pawpsdc">   4481.00197898 </i>
    <i name="pawaedc">  -3699.35327776 </i>
    <i name="eentropy">     -0.11370134 </i>
    <i name="bandstr">  -1710.64735881 </i>
    <i name="atom">  12010.34264613 </i>
    <i name="e_fr_energy">   -635.97978295 </i>
    <i name="e_wo_entrp">   -635.86608161 </i>
    <i name="e_0_energy">   -635.92293228 </i>
   </energy>
  </scstep>
  <structure>
   <crystal>
    <varray name="basis" >
     <v>       9.28425000       0.00000000       0.00000000 </v>
     <v>       0.00000000      10.72052800       0.00000000 </v>
     <v>       0.00000000       0.00000000      19.49580100 </v>
    </varray>
    <i name="volume">   1940.45727551 </i>
    <varray name="rec_basis" >
     <v>       0.10770929       0.00000000       0.00000000 </v>
     <v>       0.00000000       0.09327899       0.00000000 </v>
     <v>       0.00000000       0.00000000       0.05129310 </v>
    </varray>
   </crystal>
   <varray name="positions" >
    <v>       0.00000000       0.00000000       0.00000000 </v>
    <v>       0.16666700       0.25000000       0.00000000 </v>
    <v>       0.00000000       0.00000000       0.38944500 </v>
    <v>       0.16666700       0.25000000       0.38944500 </v>
    <v>       0.00000000       0.16666600       0.13018000 </v>
    <v>       0.16666700       0.41666600       0.13018000 </v>
    <v>       0.00000000       0.33333400       0.25985200 </v>
    <v>       0.16666700       0.08333300       0.25985200 </v>
    <v>       0.33333300       0.00000000       0.00000000 </v>
    <v>       0.50000000       0.25000000       0.00000000 </v>
    <v>       0.33333300       0.00000000       0.38944500 </v>
    <v>       0.50000000       0.25000000       0.38944500 </v>
    <v>       0.33333300       0.16666600       0.13018000 </v>
    <v>       0.50000000       0.41666600       0.13018000 </v>
    <v>       0.33333300       0.33333400       0.25985200 </v>
    <v>       0.50000000       0.08333300       0.25985200 </v>
    <v>       0.66666700       0.00000000       0.00000000 </v>
    <v>       0.83333300       0.25000000       0.00000000 </v>
    <v>       0.66666700       0.00000000       0.38944500 </v>
    <v>       0.83333300       0.25000000       0.38944500 </v>
    <v>       0.66666700       0.16666600       0.13018000 </v>
    <v>       0.83333300       0.41666600       0.13018000 </v>
    <v>       0.66666700       0.33333400       0.25985200 </v>
    <v>       0.83333300       0.08333400       0.25985200 </v>
    <v>       0.00000000       0.50000000       0.00000000 </v>
    <v>       0.16666700       0.75000000       0.00000000 </v>
    <v>       0.00000000       0.50000000       0.38944500 </v>
    <v>       0.16666700       0.75000000       0.38944500 </v>
    <v>       0.00000000       0.66666600       0.13018000 </v>
    <v>       0.16666700       0.91666600       0.13018000 </v>
    <v>       0.00000000       0.83333400       0.25985200 </v>
    <v>       0.16666700       0.58333400       0.25985200 </v>
    <v>       0.33333300       0.50000000       0.00000000 </v>
    <v>       0.50000000       0.75000000       0.00000000 </v>
    <v>       0.33333300       0.50000000       0.38944500 </v>
    <v>       0.50000000       0.75000000       0.38944500 </v>
    <v>       0.33333300       0.66666600       0.13018000 </v>
    <v>       0.50000000       0.91666700       0.13018000 </v>
    <v>       0.33333300       0.83333400       0.25985200 </v>
    <v>       0.50000000       0.58333400       0.25985200 </v>
    <v>       0.66666700       0.50000000       0.00000000 </v>
    <v>       0.83333300       0.75000000       0.00000000 </v>
    <v>       0.66666700       0.50000000       0.38944500 </v>
    <v>       0.83333300       0.75000000       0.38944500 </v>
    <v>       0.66666700       0.66666600       0.13018000 </v>
    <v>       0.83333300       0.91666700       0.13018000 </v>
    <v>       0.66666700       0.83333400       0.25985200 </v>
    <v>       0.83333300       0.58333400       0.25985200 </v>
    <v>       0.00000000       0.00000000       0.09762400 </v>
    <v>       0.16666700       0.25000000       0.09762400 </v>
    <v>      -0.00000000       0.00003495       0.48685768 </v>
    <v>       0.16666700       0.25003495       0.48685768 </v>
    <v>       0.00000000       0.16666600       0.22753200 </v>
    <v>       0.16666700       0.41666600       0.22753200 </v>
    <v>       0.00000000       0.33333400       0.35720700 </v>
    <v>       0.16666700       0.08333300       0.35720700 </v>
    <v>       0.33333300       0.00000000       0.09762400 </v>
    <v>       0.50000000       0.25000000       0.09762400 </v>
    <v>       0.33333300       0.00003495       0.48685768 </v>
    <v>       0.50000000       0.25003495       0.48685768 </v>
    <v>       0.33333300       0.16666600       0.22753200 </v>
    <v>       0.50000000       0.41666600       0.22753200 </v>
    <v>       0.33333300       0.33333400       0.35720700 </v>
    <v>       0.50000000       0.08333300       0.35720700 </v>
    <v>       0.66666700       0.00000000       0.09762400 </v>
    <v>       0.83333300       0.25000000       0.09762400 </v>
    <v>       0.66666700       0.00003495       0.48685768 </v>
    <v>       0.83333300       0.25003495       0.48685768 </v>
    <v>       0.66666700       0.16666600       0.22753200 </v>
    <v>       0.83333300       0.41666600       0.22753200 </v>
    <v>       0.66666700       0.33333400       0.35720700 </v>
    <v>       0.83333300       0.08333400       0.35720700 </v>
    <v>       0.00000000       0.50000000       0.09762400 </v>
    <v>       0.16666700       0.75000000       0.09762400 </v>
    <v>      -0.00000000       0.50003495       0.48685768 </v>
    <v>       0.16666700       0.75003495       0.48685768 </v>
    <v>       0.00000000       0.66666600       0.22753200 </v>
    <v>       0.16666700       0.91666600       0.22753200 </v>
    <v>       0.00000000       0.83333400       0.35720700 </v>
    <v>       0.16666700       0.58333400       0.35720700 </v>
    <v>       0.33333300       0.50000000       0.09762400 </v>
    <v>       0.50000000       0.75000000       0.09762400 </v>
    <v>       0.33333300       0.50003495       0.48685768 </v>
    <v>       0.50000000       0.75003495       0.48685768 </v>
    <v>       0.33333300       0.66666600       0.22753200 </v>
    <v>       0.50000000       0.91666700       0.22753200 </v>
    <v>       0.33333300       0.83333400       0.35720700 </v>
    <v>       0.50000000       0.58333400       0.35720700 </v>
    <v>       0.66666700       0.50000000       0.09762400 </v>
    <v>       0.83333300       0.75000000       0.09762400 </v>
    <v>       0.66666700       0.50003495       0.48685768 </v>
    <v>       0.83333300       0.75003495       0.48685768 </v>
    <v>       0.66666700       0.66666600       0.22753200 </v>
    <v>       0.83333300       0.91666700       0.22753200 </v>
    <v>       0.66666700       0.83333400       0.35720700 </v>
    <v>       0.83333300       0.58333400       0.35720700 </v>
   </varray>
  </structure>
  <varray name="forces" >
   <v>       0.00000000      -0.00653046      -0.19472943 </v>
   <v>      -0.00000000      -0.00653046      -0.19472943 </v>
   <v>       0.00000000      -0.01171859       0.13191793 </v>
   <v>       0.00000000      -0.01171859       0.13191793 </v>
   <v>       0.00000000      -0.00316793       0.06807130 </v>
   <v>      -0.00000000      -0.00316793       0.06807130 </v>
   <v>      -0.00000000       0.00698667       0.09122225 </v>
   <v>       0.00000000       0.00698667       0.09122225 </v>
   <v>      -0.00000000      -0.00653046      -0.19472943 </v>
   <v>      -0.00000000      -0.00653046      -0.19472943 </v>
   <v>       0.00000000      -0.01171859       0.13191793 </v>
   <v>       0.00000000      -0.01171859       0.13191793 </v>
   <v>      -0.00000000      -0.00316793       0.06807130 </v>
   <v>      -0.00000000      -0.00316793       0.06807130 </v>
   <v>      -0.00000000       0.00698667       0.09122225 </v>
   <v>      -0.00000000       0.00698667       0.09122225 </v>
   <v>      -0.00000000      -0.00653046      -0.19472943 </v>
   <v>       0.00000000      -0.00653046      -0.19472943 </v>
   <v>      -0.00000000      -0.01171859       0.13191793 </v>
   <v>       0.00000000      -0.01171859       0.13191793 </v>
   <v>       0.00000000      -0.00316793       0.06807130 </v>
   <v>       0.00000000      -0.00316793       0.06807130 </v>
   <v>      -0.00000000       0.00698667       0.09122225 </v>
   <v>      -0.00000000       0.00698667       0.09122225 </v>
   <v>      -0.00000000      -0.00653046      -0.19472943 </v>
   <v>      -0.00000000      -0.00653046      -0.19472943 </v>
   <v>       0.00000000      -0.01171859       0.13191793 </v>
   <v>      -0.00000000      -0.01171859       0.13191793 </v>
   <v>      -0.00000000      -0.00316793       0.06807130 </v>
   <v>       0.00000000      -0.00316793       0.06807130 </v>
   <v>       0.00000000       0.00698667       0.09122225 </v>
   <v>       0.00000000       0.00698667       0.09122225 </v>
   <v>      -0.00000000      -0.00653046      -0.19472943 </v>
   <v>      -0.00000000      -0.00653046      -0.19472943 </v>
   <v>      -0.00000000      -0.01171859       0.13191793 </v>
   <v>      -0.00000000      -0.01171859       0.13191793 </v>
   <v>       0.00000000      -0.00316793       0.06807130 </v>
   <v>      -0.00000000      -0.00316793       0.06807130 </v>
   <v>      -0.00000000       0.00698667       0.09122225 </v>
   <v>      -0.00000000       0.00698667       0.09122225 </v>
   <v>      -0.00000000      -0.00653046      -0.19472943 </v>
   <v>      -0.00000000      -0.00653046      -0.19472943 </v>
   <v>       0.00000000      -0.01171859       0.13191793 </v>
   <v>       0.00000000      -0.01171859       0.13191793 </v>
   <v>       0.00000000      -0.00316793       0.06807130 </v>
   <v>       0.00000000      -0.00316793       0.06807130 </v>
   <v>      -0.00000000       0.00698667       0.09122225 </v>
   <v>      -0.00000000       0.00698667       0.09122225 </v>
   <v>       0.00000000       0.00867142       0.16316186 </v>
   <v>       0.00000000       0.00867142       0.16316186 </v>
   <v>       0.00000000       0.00709307      -0.02640647 </v>
   <v>       0.00000000       0.00709307      -0.02640647 </v>
   <v>      -0.00000000      -0.00358747      -0.10370445 </v>
   <v>      -0.00000000      -0.00358747      -0.10370445 </v>
   <v>       0.00000000       0.00225330      -0.12953299 </v>
   <v>      -0.00000000       0.00225330      -0.12953299 </v>
   <v>       0.00000000       0.00867142       0.16316186 </v>
   <v>       0.00000000       0.00867142       0.16316186 </v>
   <v>      -0.00000000       0.00709307      -0.02640647 </v>
   <v>       0.00000000       0.00709307      -0.02640647 </v>
   <v>       0.00000000      -0.00358747      -0.10370445 </v>
   <v>       0.00000000      -0.00358747      -0.10370445 </v>
   <v>       0.00000000       0.00225330      -0.12953299 </v>
   <v>      -0.00000000       0.00225330      -0.12953299 </v>
   <v>      -0.00000000       0.00867142       0.16316186 </v>
   <v>      -0.00000000       0.00867142       0.16316186 </v>
   <v>      -0.00000000       0.00709307      -0.02640647 </v>
   <v>       0.00000000       0.00709307      -0.02640647 </v>
   <v>       0.00000000      -0.00358747      -0.10370445 </v>
   <v>       0.00000000      -0.00358747      -0.10370445 </v>
   <v>      -0.00000000       0.00225330      -0.12953299 </v>
   <v>      -0.00000000       0.00225330      -0.12953299 </v>
   <v>       0.00000000       0.00867142       0.16316186 </v>
   <v>       0.00000000       0.00867142       0.16316186 </v>
   <v>       0.00000000       0.00709307      -0.02640647 </v>
   <v>      -0.00000000       0.00709307      -0.02640647 </v>
   <v>      -0.00000000      -0.00358747      -0.10370445 </v>
   <v>      -0.00000000      -0.00358747      -0.10370445 </v>
   <v>       0.00000000       0.00225330      -0.12953299 </v>
   <v>       0.00000000       0.00225330      -0.12953299 </v>
   <v>       0.00000000       0.00867142       0.16316186 </v>
   <v>       0.00000000       0.00867142       0.16316186 </v>
   <v>       0.00000000       0.00709307      -0.02640647 </v>
   <v>       0.00000000       0.00709307      -0.02640647 </v>
   <v>      -0.00000000      -0.00358747      -0.10370445 </v>
   <v>       0.00000000      -0.00358747      -0.10370445 </v>
   <v>       0.00000000       0.00225330      -0.12953299 </v>
   <v>      -0.00000000       0.00225330      -0.12953299 </v>
   <v>      -0.00000000       0.00867142       0.16316186 </v>
   <v>       0.00000000       0.00867142       0.16316186 </v>
   <v>      -0.00000000       0.00709307      -0.02640647 </v>
   <v>      -0.00000000       0.00709307      -0.02640647 </v>
   <v>       0.00000000      -0.00358747      -0.10370445 </v>
   <v>      -0.00000000      -0.00358747      -0.10370445 </v>
   <v>      -0.00000000       0.00225330      -0.12953299 </v>
   <v>       0.00000000       0.00225330      -0.12953299 </v>
  </varray>
  <varray name="stress" >
   <v>     -38.45922631       0.00000000       0.00000000 </v>
   <v>       0.00000000     -39.69835138       0.28828576 </v>
   <v>       0.00000000       0.28828563       2.12548726 </v>
  </varray>
  <energy>
   <i name="e_fr_energy">   -635.97978295 </i>
   <i name="e_wo_entrp">   -635.86608161 </i>
   <i name="e_0_energy">   -635.92293228 </i>
  </energy>
  <time name="totalsc">  386.26   87.60</time>
 </calculation>
 <calculation>
  <scstep>
   <time name="dav">   45.55    6.51</time>
   <time name="total">   58.43    8.71</time>
   <energy>
    <i name="alphaZ">    273.43042677 </i>
    <i name="ewald">  34905.53901729 </i>
    <i name="hartreedc"> -47145.61032963 </i>
    <i name="XCdc">    249.98240229 </i>
    <i name="pawpsdc">   4481.00084190 </i>
    <i name="pawaedc">  -3699.35213816 </i>
    <i name="eentropy">     -0.11357860 </i>
    <i name="bandstr">  -1711.19932754 </i>
    <i name="atom">  12010.34264613 </i>
    <i name="e_fr_energy">   -635.98003954 </i>
    <i name="e_wo_entrp">   -635.86646095 </i>
    <i name="e_0_energy">   -635.92325024 </i>
   </energy>
  </scstep>
  <scstep>
   <time name="diag">    3.17    0.63</time>
   <time name="diis">    6.21    2.69</time>
   <time name="orth">    0.13    0.06</time>
   <time name="total">   22.21    5.59</time>
   <energy>
    <i name="e_fr_energy">   -635.98007613 </i>
    <i name="e_wo_entrp">   -635.86657061 </i>
    <i name="e_0_energy">   -635.92332337 </i>
   </energy>
  </scstep>
  <scstep>
   <time name="diag">    3.18    0.63</time>
   <time name="diis">    7.08    3.12</time>
   <time name="orth">    0.13    0.06</time>
   <time name="total">   23.05    6.02</time>
   <energy>
    <i name="e_fr_energy">   -635.98008503 </i>
    <i name="e_wo_entrp">   -635.86652058 </i>
    <i name="e_0_energy">   -635.92330280 </i>
   </energy>
  </scstep>
  <scstep>
   <time name="diag">    3.16    0.63</time>
   <time name="diis">    6.37    2.77</time>
   <time name="orth">    0.13    0.06</time>
   <time name="total">   22.36    5.66</time>
   <energy>
    <i name="e_fr_energy">   -635.98008099 </i>
    <i name="e_wo_entrp">   -635.86654552 </i>
    <i name="e_0_energy">   -635.92331325 </i>
   </energy>
  </scstep>
  <scstep>
   <time name="diag">    3.13    0.63</time>
   <time name="diis">    6.25    2.69</time>
   <time name="orth">    0.12    0.06</time>
   <time name="total">   22.31    5.60</time>
   <energy>
    <i name="e_fr_energy">   -635.98008178 </i>
    <i name="e_wo_entrp">   -635.86649241 </i>
    <i name="e_0_energy">   -635.92328709 </i>
   </energy>
  </scstep>
  <scstep>
   <time name="diag">    3.21    0.63</time>
   <time name="diis">    5.12    2.12</time>
   <time name="orth">    0.12    0.06</time>
   <time name="total">   21.19    5.03</time>
   <energy>
    <i name="e_fr_energy">   -635.98007812 </i>
    <i name="e_wo_entrp">   -635.86650362 </i>
    <i name="e_0_energy">   -635.92329087 </i>
   </energy>
  </scstep>
  <scstep>
   <time name="diag">    3.16    0.64</time>
   <time name="diis">    5.66    2.41</time>
   <time name="orth">    0.13    0.06</time>
   <time name="total">   21.64    5.31</time>
   <energy>
    <i name="e_fr_energy">   -635.98007750 </i>
    <i name="e_wo_entrp">   -635.86650303 </i>
    <i name="e_0_energy">   -635.92329026 </i>
   </energy>
  </scstep>
  <scstep>
   <time name="diag">    3.20    0.63</time>
   <time name="diis">    4.21    1.68</time>
   <time name="orth">    0.13    0.06</time>
   <time name="total">   20.32    4.60</time>
   <energy>
    <i name="e_fr_energy">   -635.98007867 </i>
    <i name="e_wo_entrp">   -635.86649968 </i>
    <i name="e_0_energy">   -635.92328917 </i>
   </energy>
  </scstep>
  <scstep>
   <time name="diag">    3.17    0.63</time>
   <time name="diis">    4.19    1.67</time>
   <time name="orth">    0.13    0.06</time>
   <time name="total">   20.22    4.57</time>
   <energy>
    <i name="e_fr_energy">   -635.98008130 </i>
[...]
       <r>    -7.2702     9.3506    99.4068 </r>
       <r>    -7.1961     8.6232   100.0463 </r>
       <r>    -7.1219    11.0941   100.8691 </r>
       <r>    -7.0477    17.3981   102.1595 </r>
       <r>    -6.9736    17.5314   103.4597 </r>
       <r>    -6.8994    12.9138   104.4175 </r>
       <r>    -6.8252    12.2911   105.3291 </r>
       <r>    -6.7511    15.0633   106.4463 </r>
       <r>    -6.6769    20.4712   107.9645 </r>
       <r>    -6.6027    28.1301   110.0508 </r>
       <r>    -6.5286    26.6622   112.0283 </r>
       <r>    -6.4544    23.6730   113.7840 </r>
       <r>    -6.3802    27.5775   115.8293 </r>
       <r>    -6.3061    26.9353   117.8270 </r>
       <r>    -6.2319    24.4591   119.6411 </r>
       <r>    -6.1577    27.5243   121.6825 </r>
       <r>    -6.0836    30.0195   123.9089 </r>
       <r>    -6.0094    30.8792   126.1991 </r>
       <r>    -5.9352    29.4120   128.3805 </r>
       <r>    -5.8611    20.6536   129.9123 </r>
       <r>    -5.7869    16.7626   131.1555 </r>
       <r>    -5.7127    16.7476   132.3976 </r>
       <r>    -5.6386    13.1287   133.3713 </r>
       <r>    -5.5644    14.7015   134.4617 </r>
       <r>    -5.4903    21.2155   136.0352 </r>
       <r>    -5.4161    28.6211   138.1579 </r>
       <r>    -5.3419    32.7369   140.5859 </r>
       <r>    -5.2678    33.2981   143.0555 </r>
       <r>    -5.1936    34.7757   145.6346 </r>
       <r>    -5.1194    32.7628   148.0645 </r>
       <r>    -5.0453    25.3511   149.9447 </r>
       <r>    -4.9711    30.0157   152.1709 </r>
       <r>    -4.8969    40.9309   155.2066 </r>
       <r>    -4.8228    42.6909   158.3728 </r>
       <r>    -4.7486    43.1117   161.5703 </r>
       <r>    -4.6744    40.6563   164.5856 </r>
       <r>    -4.6003    30.3035   166.8331 </r>
       <r>    -4.5261    21.9686   168.4624 </r>
       <r>    -4.4519    21.8535   170.0832 </r>
       <r>    -4.3778    25.4081   171.9676 </r>
       <r>    -4.3036    23.8312   173.7351 </r>
       <r>    -4.2294    19.5679   175.1864 </r>
       <r>    -4.1553    18.7288   176.5754 </r>
       <r>    -4.0811    18.2553   177.9294 </r>
       <r>    -4.0069    18.0485   179.2680 </r>
       <r>    -3.9328    15.6244   180.4268 </r>
       <r>    -3.8586    16.7762   181.6710 </r>
       <r>    -3.7844    17.7766   182.9894 </r>
       <r>    -3.7103    13.3033   183.9761 </r>
       <r>    -3.6361    12.3910   184.8951 </r>
       <r>    -3.5619    15.2311   186.0247 </r>
       <r>    -3.4878    18.2585   187.3789 </r>
       <r>    -3.4136    24.3291   189.1833 </r>
       <r>    -3.3394    30.2786   191.4289 </r>
       <r>    -3.2653    44.2593   194.7115 </r>
       <r>    -3.1911    60.9287   199.2304 </r>
       <r>    -3.1169    66.1113   204.1336 </r>
       <r>    -3.0428    53.7366   208.1190 </r>
       <r>    -2.9686    38.5294   210.9766 </r>
       <r>    -2.8944    43.2261   214.1825 </r>
       <r>    -2.8203    47.9679   217.7402 </r>
       <r>    -2.7461    35.2434   220.3540 </r>
       <r>    -2.6719    22.8663   222.0499 </r>
       <r>    -2.5978    18.7723   223.4422 </r>
       <r>    -2.5236    20.5156   224.9638 </r>
       <r>    -2.4494    29.5792   227.1576 </r>
       <r>    -2.3753    36.9022   229.8945 </r>
       <r>    -2.3011    35.5166   232.5286 </r>
       <r>    -2.2269    38.2028   235.3620 </r>
       <r>    -2.1528    45.0155   238.7006 </r>
       <r>    -2.0786    45.7895   242.0966 </r>
       <r>    -2.0044    38.3159   244.9384 </r>
       <r>    -1.9303    35.8274   247.5956 </r>
       <r>    -1.8561    43.8514   250.8479 </r>
       <r>    -1.7819    44.9220   254.1796 </r>
       <r>    -1.7078    39.8277   257.1335 </r>
       <r>    -1.6336    41.6179   260.2201 </r>
       <r>    -1.5594    48.6194   263.8260 </r>
       <r>    -1.4853    60.0747   268.2816 </r>
       <r>    -1.4111    65.9562   273.1733 </r>
       <r>    -1.3369    53.6523   277.1525 </r>
       <r>    -1.2628    34.5693   279.7164 </r>
       <r>    -1.1886    28.8956   281.8594 </r>
       <r>    -1.1144    33.4220   284.3382 </r>
       <r>    -1.0403    30.9881   286.6365 </r>
       <r>    -0.9661    27.0707   288.6442 </r>
       <r>    -0.8919    33.5535   291.1328 </r>
       <r>    -0.8178    42.4616   294.2820 </r>
       <r>    -0.7436    51.2609   298.0838 </r>
       <r>    -0.6694    66.4452   303.0118 </r>
       <r>    -0.5953    74.9536   308.5709 </r>
       <r>    -0.5211    64.1679   313.3300 </r>
       <r>    -0.4469    46.0432   316.7448 </r>
       <r>    -0.3728    41.1959   319.8002 </r>
       <r>    -0.2986    43.1408   322.9998 </r>
       <r>    -0.2244    34.5308   325.5608 </r>
       <r>    -0.1503    22.6189   327.2384 </r>
       <r>    -0.0761    18.1715   328.5861 </r>
       <r>    -0.0019    20.3347   330.0942 </r>
       <r>     0.0722    19.8939   331.5697 </r>
       <r>     0.1464    18.9557   332.9756 </r>
       <r>     0.2206    23.8414   334.7438 </r>
       <r>     0.2947    33.1032   337.1989 </r>
       <r>     0.3689    40.8327   340.2273 </r>
       <r>     0.4431    42.0110   343.3432 </r>
       <r>     0.5172    45.7790   346.7384 </r>
       <r>     0.5914    50.5781   350.4896 </r>
       <r>     0.6656    51.5702   354.3144 </r>
       <r>     0.7397    50.4980   358.0596 </r>
       <r>     0.8139    50.3794   361.7961 </r>
       <r>     0.8881    47.8061   365.3417 </r>
       <r>     0.9622    36.0722   368.0170 </r>
       <r>     1.0364    27.9267   370.0883 </r>
       <r>     1.1106    34.7108   372.6626 </r>
       <r>     1.1847    45.5711   376.0425 </r>
       <r>     1.2589    42.5159   379.1957 </r>
       <r>     1.3331    27.7792   381.2560 </r>
       <r>     1.4072    18.8873   382.6568 </r>
       <r>     1.4814    20.5687   384.1823 </r>
       <r>     1.5556    24.8199   386.0231 </r>
       <r>     1.6297    22.6513   387.7031 </r>
       <r>     1.7039    20.6855   389.2373 </r>
       <r>     1.7781    22.7174   390.9221 </r>
       <r>     1.8522    22.2286   392.5707 </r>
       <r>     1.9264    19.9085   394.0473 </r>
       <r>     2.0006    20.5868   395.5741 </r>
       <r>     2.0747    20.2248   397.0741 </r>
       <r>     2.1489    17.9159   398.4029 </r>
       <r>     2.2231    13.9170   399.4351 </r>
       <r>     2.2972    10.4268   400.2084 </r>
       <r>     2.3714    12.7514   401.1541 </r>
       <r>     2.4456    20.4507   402.6709 </r>
       <r>     2.5197    25.3834   404.5535 </r>
       <r>     2.5939    18.3766   405.9164 </r>
       <r>     2.6681    10.4594   406.6921 </r>
       <r>     2.7422     9.9346   407.4289 </r>
       <r>     2.8164    11.6021   408.2894 </r>
       <r>     2.8905    19.3781   409.7266 </r>
       <r>     2.9647    28.0025   411.8035 </r>
       <r>     3.0389    27.7360   413.8605 </r>
       <r>     3.1130    28.6742   415.9872 </r>
       <r>     3.1872    36.6294   418.7039 </r>
       <r>     3.2614    40.6484   421.7186 </r>
       <r>     3.3355    33.9908   424.2396 </r>
       <r>     3.4097    28.6899   426.3674 </r>
       <r>     3.4839    27.2336   428.3872 </r>
       <r>     3.5580    23.3255   430.1172 </r>
       <r>     3.6322    23.7451   431.8783 </r>
       <r>     3.7064    28.9939   434.0287 </r>
       <r>     3.7805    26.2959   435.9789 </r>
       <r>     3.8547    20.5325   437.5018 </r>
       <r>     3.9289    19.8142   438.9713 </r>
       <r>     4.0030    17.3115   440.2552 </r>
       <r>     4.0772    13.4249   441.2509 </r>
       <r>     4.1514    11.7134   442.1197 </r>
       <r>     4.2255     8.7193   442.7663 </r>
       <r>     4.2997     5.5527   443.1781 </r>
       <r>     4.3739     5.4192   443.5801 </r>
       <r>     4.4480    11.8501   444.4590 </r>
       <r>     4.5222    19.9067   445.9354 </r>
       <r>     4.5964    26.3130   447.8869 </r>
       <r>     4.6705    38.1906   450.7194 </r>
       <r>     4.7447    42.6823   453.8849 </r>
       <r>     4.8189    32.2433   456.2763 </r>
       <r>     4.8930    20.2664   457.7794 </r>
       <r>     4.9672    13.2603   458.7629 </r>
       <r>     5.0414    13.2703   459.7471 </r>
       <r>     5.1155    21.4335   461.3367 </r>
       <r>     5.1897    26.0942   463.2720 </r>
       <r>     5.2639    23.2678   464.9977 </r>
       <r>     5.3380    19.9527   466.4775 </r>
       <r>     5.4122    18.4295   467.8444 </r>
       <r>     5.4864    22.4958   469.5128 </r>
       <r>     5.5605    28.4211   471.6207 </r>
       <r>     5.6347    29.9434   473.8415 </r>
       <r>     5.7089    29.0952   475.9994 </r>
       <r>     5.7830    24.6245   477.8257 </r>
       <r>     5.8572    19.0621   479.2395 </r>
       <r>     5.9314    17.2969   480.5223 </r>
       <r>     6.0055    12.7666   481.4692 </r>
       <r>     6.0797     5.5039   481.8774 </r>
       <r>     6.1539     1.4336   481.9837 </r>
       <r>     6.2280     0.2064   481.9990 </r>
       <r>     6.3022     0.0130   482.0000 </r>
       <r>     6.3764     0.0003   482.0000 </r>
       <r>     6.4505     0.0000   482.0000 </r>
       <r>     6.5247     0.0000   482.0000 </r>
       <r>     6.5989     0.0000   482.0000 </r>
       <r>     6.6730     0.0000   482.0000 </r>
       <r>     6.7472     0.0000   482.0000 </r>
       <r>     6.8214     0.0000   482.0000 </r>
       <r>     6.8955     0.0000   482.0000 </r>
       <r>     6.9697     0.0000   482.0000 </r>
       <r>     7.0439     0.0000   482.0000 </r>
      </set>
     </set>
    </array>
   </total>
  </dos>
 </calculation>
 <structure name="finalpos" >
  <crystal>
   <varray name="basis" >
    <v>       9.28425000       0.00000000       0.00000000 </v>
    <v>       0.00000000      10.72052800       0.00000000 </v>
    <v>       0.00000000       0.00000000      19.49580100 </v>
   </varray>
   <i name="volume">   1940.45727551 </i>
   <varray name="rec_basis" >
    <v>       0.10770929       0.00000000       0.00000000 </v>
    <v>       0.00000000       0.09327899       0.00000000 </v>
    <v>       0.00000000       0.00000000       0.05129310 </v>
   </varray>
  </crystal>
  <varray name="positions" >
   <v>       0.00000000       0.00000000       0.00000000 </v>
   <v>       0.16666700       0.25000000       0.00000000 </v>
   <v>       0.00000000       0.00000000       0.38944500 </v>
   <v>       0.16666700       0.25000000       0.38944500 </v>
   <v>       0.00000000       0.16666600       0.13018000 </v>
   <v>       0.16666700       0.41666600       0.13018000 </v>
   <v>       0.00000000       0.33333400       0.25985200 </v>
   <v>       0.16666700       0.08333300       0.25985200 </v>
   <v>       0.33333300       0.00000000       0.00000000 </v>
   <v>       0.50000000       0.25000000       0.00000000 </v>
   <v>       0.33333300       0.00000000       0.38944500 </v>
   <v>       0.50000000       0.25000000       0.38944500 </v>
   <v>       0.33333300       0.16666600       0.13018000 </v>
   <v>       0.50000000       0.41666600       0.13018000 </v>
   <v>       0.33333300       0.33333400       0.25985200 </v>
   <v>       0.50000000       0.08333300       0.25985200 </v>
   <v>       0.66666700       0.00000000       0.00000000 </v>
   <v>       0.83333300       0.25000000       0.00000000 </v>
   <v>       0.66666700       0.00000000       0.38944500 </v>
   <v>       0.83333300       0.25000000       0.38944500 </v>
   <v>       0.66666700       0.16666600       0.13018000 </v>
   <v>       0.83333300       0.41666600       0.13018000 </v>
   <v>       0.66666700       0.33333400       0.25985200 </v>
   <v>       0.83333300       0.08333400       0.25985200 </v>
   <v>       0.00000000       0.50000000       0.00000000 </v>
   <v>       0.16666700       0.75000000       0.00000000 </v>
   <v>       0.00000000       0.50000000       0.38944500 </v>
   <v>       0.16666700       0.75000000       0.38944500 </v>
   <v>       0.00000000       0.66666600       0.13018000 </v>
   <v>       0.16666700       0.91666600       0.13018000 </v>
   <v>       0.00000000       0.83333400       0.25985200 </v>
   <v>       0.16666700       0.58333400       0.25985200 </v>
   <v>       0.33333300       0.50000000       0.00000000 </v>
   <v>       0.50000000       0.75000000       0.00000000 </v>
   <v>       0.33333300       0.50000000       0.38944500 </v>
   <v>       0.50000000       0.75000000       0.38944500 </v>
   <v>       0.33333300       0.66666600       0.13018000 </v>
   <v>       0.50000000       0.91666700       0.13018000 </v>
   <v>       0.33333300       0.83333400       0.25985200 </v>
   <v>       0.50000000       0.58333400       0.25985200 </v>
   <v>       0.66666700       0.50000000       0.00000000 </v>
   <v>       0.83333300       0.75000000       0.00000000 </v>
   <v>       0.66666700       0.50000000       0.38944500 </v>
   <v>       0.83333300       0.75000000       0.38944500 </v>
   <v>       0.66666700       0.66666600       0.13018000 </v>
   <v>       0.83333300       0.91666700       0.13018000 </v>
   <v>       0.66666700       0.83333400       0.25985200 </v>
   <v>       0.83333300       0.58333400       0.25985200 </v>
   <v>       0.00000000       0.00000000       0.09762400 </v>
   <v>       0.16666700       0.25000000       0.09762400 </v>
   <v>      -0.00000000       0.00005157       0.48675722 </v>
   <v>       0.16666700       0.25005157       0.48675722 </v>
   <v>       0.00000000       0.16666600       0.22753200 </v>
   <v>       0.16666700       0.41666600       0.22753200 </v>
   <v>       0.00000000       0.33333400       0.35720700 </v>
   <v>       0.16666700       0.08333300       0.35720700 </v>
   <v>       0.33333300       0.00000000       0.09762400 </v>
   <v>       0.50000000       0.25000000       0.09762400 </v>
   <v>       0.33333300       0.00005157       0.48675722 </v>
   <v>       0.50000000       0.25005157       0.48675722 </v>
   <v>       0.33333300       0.16666600       0.22753200 </v>
   <v>       0.50000000       0.41666600       0.22753200 </v>
   <v>       0.33333300       0.33333400       0.35720700 </v>
   <v>       0.50000000       0.08333300       0.35720700 </v>
   <v>       0.66666700       0.00000000       0.09762400 </v>
   <v>       0.83333300       0.25000000       0.09762400 </v>
   <v>       0.66666700       0.00005157       0.48675722 </v>
   <v>       0.83333300       0.25005157       0.48675722 </v>
   <v>       0.66666700       0.16666600       0.22753200 </v>
   <v>       0.83333300       0.41666600       0.22753200 </v>
   <v>       0.66666700       0.33333400       0.35720700 </v>
   <v>       0.83333300       0.08333400       0.35720700 </v>
   <v>       0.00000000       0.50000000       0.09762400 </v>
   <v>       0.16666700       0.75000000       0.09762400 </v>
   <v>      -0.00000000       0.50005157       0.48675722 </v>
   <v>       0.16666700       0.75005157       0.48675722 </v>
   <v>       0.00000000       0.66666600       0.22753200 </v>
   <v>       0.16666700       0.91666600       0.22753200 </v>
   <v>       0.00000000       0.83333400       0.35720700 </v>
   <v>       0.16666700       0.58333400       0.35720700 </v>
   <v>       0.33333300       0.50000000       0.09762400 </v>
   <v>       0.50000000       0.75000000       0.09762400 </v>
   <v>       0.33333300       0.50005157       0.48675722 </v>
   <v>       0.50000000       0.75005157       0.48675722 </v>
   <v>       0.33333300       0.66666600       0.22753200 </v>
   <v>       0.50000000       0.91666700       0.22753200 </v>
   <v>       0.33333300       0.83333400       0.35720700 </v>
   <v>       0.50000000       0.58333400       0.35720700 </v>
   <v>       0.66666700       0.50000000       0.09762400 </v>
   <v>       0.83333300       0.75000000       0.09762400 </v>
   <v>       0.66666700       0.50005157       0.48675722 </v>
   <v>       0.83333300       0.75005157       0.48675722 </v>
   <v>       0.66666700       0.66666600       0.22753200 </v>
   <v>       0.83333300       0.91666700       0.22753200 </v>
   <v>       0.66666700       0.83333400       0.35720700 </v>
   <v>       0.83333300       0.58333400       0.35720700 </v>
  </varray>
  <varray name="selective"  type="logical" >
   <v type="logical" >  F  F  F </v>
   <v type="logical" >  F  F  F </v>
   <v type="logical" >  F  F  F </v>
   <v type="logical" >  F  F  F </v>
   <v type="logical" >  F  F  F </v>
   <v type="logical" >  F  F  F </v>
   <v type="logical" >  F  F  F </v>
   <v type="logical" >  F  F  F </v>
   <v type="logical" >  F  F  F </v>
   <v type="logical" >  F  F  F </v>
   <v type="logical" >  F  F  F </v>
   <v type="logical" >  F  F  F </v>
   <v type="logical" >  F  F  F </v>
   <v type="logical" >  F  F  F </v>
   <v type="logical" >  F  F  F </v>
   <v type="logical" >  F  F  F </v>
   <v type="logical" >  F  F  F </v>
   <v type="logical" >  F  F  F </v>
   <v type="logical" >  F  F  F </v>
   <v type="logical" >  F  F  F </v>
   <v type="logical" >  F  F  F </v>
   <v type="logical" >  F  F  F </v>
   <v type="logical" >  F  F  F </v>
   <v type="logical" >  F  F  F </v>
   <v type="logical" >  F  F  F </v>
   <v type="logical" >  F  F  F </v>
   <v type="logical" >  F  F  F </v>
   <v type="logical" >  F  F  F </v>
   <v type="logical" >  F  F  F </v>
   <v type="logical" >  F  F  F </v>
   <v type="logical" >  F  F  F </v>
   <v type="logical" >  F  F  F </v>
   <v type="logical" >  F  F  F </v>
   <v type="logical" >  F  F  F </v>
   <v type="logical" >  F  F  F </v>
   <v type="logical" >  F  F  F </v>
   <v type="logical" >  F  F  F </v>
   <v type="logical" >  F  F  F </v>
   <v type="logical" >  F  F  F </v>
   <v type="logical" >  F  F  F </v>
   <v type="logical" >  F  F  F </v>
   <v type="logical" >  F  F  F </v>
   <v type="logical" >  F  F  F </v>
   <v type="logical" >  F  F  F </v>
   <v type="logical" >  F  F  F </v>
   <v type="logical" >  F  F  F </v>
   <v type="logical" >  F  F  F </v>
   <v type="logical" >  F  F  F </v>
   <v type="logical" >  F  F  F </v>
   <v type="logical" >  F  F  F </v>
   <v type="logical" >  T  T  T </v>
   <v type="logical" >  T  T  T </v>
   <v type="logical" >  F  F  F </v>
   <v type="logical" >  F  F  F </v>
   <v type="logical" >  F  F  F </v>
   <v type="logical" >  F  F  F </v>
   <v type="logical" >  F  F  F </v>
   <v type="logical" >  F  F  F </v>
   <v type="logical" >  T  T  T </v>
   <v type="logical" >  T  T  T </v>
   <v type="logical" >  F  F  F </v>
   <v type="logical" >  F  F  F </v>
   <v type="logical" >  F  F  F </v>
   <v type="logical" >  F  F  F </v>
   <v type="logical" >  F  F  F </v>
   <v type="logical" >  F  F  F </v>
   <v type="logical" >  T  T  T </v>
   <v type="logical" >  T  T  T </v>
   <v type="logical" >  F  F  F </v>
   <v type="logical" >  F  F  F </v>
   <v type="logical" >  F  F  F </v>
   <v type="logical" >  F  F  F </v>
   <v type="logical" >  F  F  F </v>
   <v type="logical" >  F  F  F </v>
   <v type="logical" >  T  T  T </v>
   <v type="logical" >  T  T  T </v>
   <v type="logical" >  F  F  F </v>
   <v type="logical" >  F  F  F </v>
   <v type="logical" >  F  F  F </v>
   <v type="logical" >  F  F  F </v>
   <v type="logical" >  F  F  F </v>
   <v type="logical" >  F  F  F </v>
   <v type="logical" >  T  T  T </v>
   <v type="logical" >  T  T  T </v>
   <v type="logical" >  F  F  F </v>
   <v type="logical" >  F  F  F </v>
   <v type="logical" >  F  F  F </v>
   <v type="logical" >  F  F  F </v>
   <v type="logical" >  F  F  F </v>
   <v type="logical" >  F  F  F </v>
   <v type="logical" >  T  T  T </v>
   <v type="logical" >  T  T  T </v>
   <v type="logical" >  F  F  F </v>
   <v type="logical" >  F  F  F </v>
   <v type="logical" >  F  F  F </v>
   <v type="logical" >  F  F  F </v>
  </varray>
  <nose>
   <v>      -3.00000000       0.00000000       0.00010000       0.00010000 </v>
  </nose>
 </structure>
</modeling>
