ni3al                                   
           1
     9.284250    0.000000    0.000000
     0.000000   10.720528    0.000000
     0.000000    0.000000   19.495801
   C    Si
    48    48
Direct configuration=     1
   0.00000000  0.00000000  0.00000000
   0.16666700  0.25000000  0.00000000
   0.00000000  0.00000000  0.38944500
   0.16666700  0.25000000  0.38944500
   0.00000000  0.16666600  0.13018000
   0.16666700  0.41666600  0.13018000
   0.00000000  0.33333400  0.25985200
   0.16666700  0.08333300  0.25985200
   0.33333300  0.00000000  0.00000000
   0.50000000  0.25000000  0.00000000
   0.33333300  0.00000000  0.38944500
   0.50000000  0.25000000  0.38944500
   0.33333300  0.16666600  0.13018000
   0.50000000  0.41666600  0.13018000
   0.33333300  0.33333400  0.25985200
   0.50000000  0.08333300  0.25985200
   0.66666700  0.00000000  0.00000000
   0.83333300  0.25000000  0.00000000
   0.66666700  0.00000000  0.38944500
   0.83333300  0.25000000  0.38944500
   0.66666700  0.16666600  0.13018000
   0.83333300  0.41666600  0.13018000
   0.66666700  0.33333400  0.25985200
   0.83333300  0.08333400  0.25985200
   0.00000000  0.50000000  0.00000000
   0.16666700  0.75000000  0.00000000
   0.00000000  0.50000000  0.38944500
   0.16666700  0.75000000  0.38944500
   0.00000000  0.66666600  0.13018000
   0.16666700  0.91666600  0.13018000
   0.00000000  0.83333400  0.25985200
   0.16666700  0.58333400  0.25985200
   0.33333300  0.50000000  0.00000000
   0.50000000  0.75000000  0.00000000
   0.33333300  0.50000000  0.38944500
   0.50000000  0.75000000  0.38944500
   0.33333300  0.66666600  0.13018000
   0.50000000  0.91666700  0.13018000
   0.33333300  0.83333400  0.25985200
   0.50000000  0.58333400  0.25985200
   0.66666700  0.50000000  0.00000000
   0.83333300  0.75000000  0.00000000
   0.66666700  0.50000000  0.38944500
   0.83333300  0.75000000  0.38944500
   0.66666700  0.66666600  0.13018000
   0.83333300  0.91666700  0.13018000
   0.66666700  0.83333400  0.25985200
   0.83333300  0.58333400  0.25985200
   0.00000000  0.00000000  0.09762400
   0.16666700  0.25000000  0.09762400
   0.00000000  0.00000000  0.48706900
   0.16666700  0.25000000  0.48706900
   0.00000000  0.16666600  0.22753200
   0.16666700  0.41666600  0.22753200
   0.00000000  0.33333400  0.35720700
   0.16666700  0.08333300  0.35720700
   0.33333300  0.00000000  0.09762400
   0.50000000  0.25000000  0.09762400
   0.33333300  0.00000000  0.48706900
   0.50000000  0.25000000  0.48706900
   0.33333300  0.16666600  0.22753200
   0.50000000  0.41666600  0.22753200
   0.33333300  0.33333400  0.35720700
   0.50000000  0.08333300  0.35720700
   0.66666700  0.00000000  0.09762400
   0.83333300  0.25000000  0.09762400
   0.66666700  0.00000000  0.48706900
   0.83333300  0.25000000  0.48706900
   0.66666700  0.16666600  0.22753200
   0.83333300  0.41666600  0.22753200
   0.66666700  0.33333400  0.35720700
   0.83333300  0.08333400  0.35720700
   0.00000000  0.50000000  0.09762400
   0.16666700  0.75000000  0.09762400
   0.00000000  0.50000000  0.48706900
   0.16666700  0.75000000  0.48706900
   0.00000000  0.66666600  0.22753200
   0.16666700  0.91666600  0.22753200
   0.00000000  0.83333400  0.35720700
   0.16666700  0.58333400  0.35720700
   0.33333300  0.50000000  0.09762400
   0.50000000  0.75000000  0.09762400
   0.33333300  0.50000000  0.48706900
   0.50000000  0.75000000  0.48706900
   0.33333300  0.66666600  0.22753200
   0.50000000  0.91666700  0.22753200
   0.33333300  0.83333400  0.35720700
   0.50000000  0.58333400  0.35720700
   0.66666700  0.50000000  0.09762400
   0.83333300  0.75000000  0.09762400
   0.66666700  0.50000000  0.48706900
   0.83333300  0.75000000  0.48706900
   0.66666700  0.66666600  0.22753200
   0.83333300  0.91666700  0.22753200
   0.66666700  0.83333400  0.35720700
   0.83333300  0.58333400  0.35720700
Direct configuration=     2
   0.00000000  0.00000000  0.00000000
   0.16666700  0.25000000  0.00000000
   0.00000000  0.00000000  0.38944500
   0.16666700  0.25000000  0.38944500
   0.00000000  0.16666600  0.13018000
   0.16666700  0.41666600  0.13018000
   0.00000000  0.33333400  0.25985200
   0.16666700  0.08333300  0.25985200
   0.33333300  0.00000000  0.00000000
   0.50000000  0.25000000  0.00000000
   0.33333300  0.00000000  0.38944500
   0.50000000  0.25000000  0.38944500
   0.33333300  0.16666600  0.13018000
   0.50000000  0.41666600  0.13018000
   0.33333300  0.33333400  0.25985200
   0.50000000  0.08333300  0.25985200
   0.66666700  0.00000000  0.00000000
   0.83333300  0.25000000  0.00000000
   0.66666700  0.00000000  0.38944500
   0.83333300  0.25000000  0.38944500
   0.66666700  0.16666600  0.13018000
   0.83333300  0.41666600  0.13018000
   0.66666700  0.33333400  0.25985200
   0.83333300  0.08333400  0.25985200
   0.00000000  0.50000000  0.00000000
   0.16666700  0.75000000  0.00000000
   0.00000000  0.50000000  0.38944500
   0.16666700  0.75000000  0.38944500
   0.00000000  0.66666600  0.13018000
   0.16666700  0.91666600  0.13018000
   0.00000000  0.83333400  0.25985200
   0.16666700  0.58333400  0.25985200
   0.33333300  0.50000000  0.00000000
   0.50000000  0.75000000  0.00000000
   0.33333300  0.50000000  0.38944500
   0.50000000  0.75000000  0.38944500
   0.33333300  0.66666600  0.13018000
   0.50000000  0.91666700  0.13018000
   0.33333300  0.83333400  0.25985200
   0.50000000  0.58333400  0.25985200
   0.66666700  0.50000000  0.00000000
   0.83333300  0.75000000  0.00000000
   0.66666700  0.50000000  0.38944500
   0.83333300  0.75000000  0.38944500
   0.66666700  0.66666600  0.13018000
   0.83333300  0.91666700  0.13018000
   0.66666700  0.83333400  0.25985200
   0.83333300  0.58333400  0.25985200
   0.00000000  0.00000000  0.09762400
   0.16666700  0.25000000  0.09762400
  -0.00000000  0.00003495  0.48685768
   0.16666700  0.25003495  0.48685768
   0.00000000  0.16666600  0.22753200
   0.16666700  0.41666600  0.22753200
   0.00000000  0.33333400  0.35720700
   0.16666700  0.08333300  0.35720700
   0.33333300  0.00000000  0.09762400
   0.50000000  0.25000000  0.09762400
   0.33333300  0.00003495  0.48685768
   0.50000000  0.25003495  0.48685768
   0.33333300  0.16666600  0.22753200
   0.50000000  0.41666600  0.22753200
   0.33333300  0.33333400  0.35720700
   0.50000000  0.08333300  0.35720700
   0.66666700  0.00000000  0.09762400
   0.83333300  0.25000000  0.09762400
   0.66666700  0.00003495  0.48685768
   0.83333300  0.25003495  0.48685768
   0.66666700  0.16666600  0.22753200
   0.83333300  0.41666600  0.22753200
   0.66666700  0.33333400  0.35720700
   0.83333300  0.08333400  0.35720700
   0.00000000  0.50000000  0.09762400
   0.16666700  0.75000000  0.09762400
  -0.00000000  0.50003495  0.48685768
   0.16666700  0.75003495  0.48685768
   0.00000000  0.66666600  0.22753200
   0.16666700  0.91666600  0.22753200
   0.00000000  0.83333400  0.35720700
   0.16666700  0.58333400  0.35720700
   0.33333300  0.50000000  0.09762400
   0.50000000  0.75000000  0.09762400
   0.33333300  0.50003495  0.48685768
   0.50000000  0.75003495  0.48685768
   0.33333300  0.66666600  0.22753200
   0.50000000  0.91666700  0.22753200
   0.33333300  0.83333400  0.35720700
   0.50000000  0.58333400  0.35720700
   0.66666700  0.50000000  0.09762400
   0.83333300  0.75000000  0.09762400
   0.66666700  0.50003495  0.48685768
   0.83333300  0.75003495  0.48685768
   0.66666700  0.66666600  0.22753200
   0.83333300  0.91666700  0.22753200
   0.66666700  0.83333400  0.35720700
   0.83333300  0.58333400  0.35720700
Direct configuration=     3
   0.00000000  0.00000000  0.00000000
   0.16666700  0.25000000  0.00000000
   0.00000000  0.00000000  0.38944500
   0.16666700  0.25000000  0.38944500
   0.00000000  0.16666600  0.13018000
   0.16666700  0.41666600  0.13018000
   0.00000000  0.33333400  0.25985200
   0.16666700  0.08333300  0.25985200
   0.33333300  0.00000000  0.00000000
   0.50000000  0.25000000  0.00000000
   0.33333300  0.00000000  0.38944500
   0.50000000  0.25000000  0.38944500
   0.33333300  0.16666600  0.13018000
   0.50000000  0.41666600  0.13018000
   0.33333300  0.33333400  0.25985200
   0.50000000  0.08333300  0.25985200
   0.66666700  0.00000000  0.00000000
   0.83333300  0.25000000  0.00000000
   0.66666700  0.00000000  0.38944500
   0.83333300  0.25000000  0.38944500
   0.66666700  0.16666600  0.13018000
   0.83333300  0.41666600  0.13018000
   0.66666700  0.33333400  0.25985200
   0.83333300  0.08333400  0.25985200
   0.00000000  0.50000000  0.00000000
   0.16666700  0.75000000  0.00000000
   0.00000000  0.50000000  0.38944500
   0.16666700  0.75000000  0.38944500
   0.00000000  0.66666600  0.13018000
   0.16666700  0.91666600  0.13018000
   0.00000000  0.83333400  0.25985200
   0.16666700  0.58333400  0.25985200
   0.33333300  0.50000000  0.00000000
   0.50000000  0.75000000  0.00000000
   0.33333300  0.50000000  0.38944500
   0.50000000  0.75000000  0.38944500
   0.33333300  0.66666600  0.13018000
   0.50000000  0.91666700  0.13018000
   0.33333300  0.83333400  0.25985200
   0.50000000  0.58333400  0.25985200
   0.66666700  0.50000000  0.00000000
   0.83333300  0.75000000  0.00000000
   0.66666700  0.50000000  0.38944500
   0.83333300  0.75000000  0.38944500
   0.66666700  0.66666600  0.13018000
   0.83333300  0.91666700  0.13018000
   0.66666700  0.83333400  0.25985200
   0.83333300  0.58333400  0.25985200
   0.00000000  0.00000000  0.09762400
   0.16666700  0.25000000  0.09762400
  -0.00000000  0.00005157  0.48675722
   0.16666700  0.25005157  0.48675722
   0.00000000  0.16666600  0.22753200
   0.16666700  0.41666600  0.22753200
   0.00000000  0.33333400  0.35720700
   0.16666700  0.08333300  0.35720700
   0.33333300  0.00000000  0.09762400
   0.50000000  0.25000000  0.09762400
   0.33333300  0.00005157  0.48675722
   0.50000000  0.25005157  0.48675722
   0.33333300  0.16666600  0.22753200
   0.50000000  0.41666600  0.22753200
   0.33333300  0.33333400  0.35720700
   0.50000000  0.08333300  0.35720700
   0.66666700  0.00000000  0.09762400
   0.83333300  0.25000000  0.09762400
   0.66666700  0.00005157  0.48675722
   0.83333300  0.25005157  0.48675722
   0.66666700  0.16666600  0.22753200
   0.83333300  0.41666600  0.22753200
   0.66666700  0.33333400  0.35720700
   0.83333300  0.08333400  0.35720700
   0.00000000  0.50000000  0.09762400
   0.16666700  0.75000000  0.09762400
  -0.00000000  0.50005157  0.48675722
   0.16666700  0.75005157  0.48675722
   0.00000000  0.66666600  0.22753200
   0.16666700  0.91666600  0.22753200
   0.00000000  0.83333400  0.35720700
   0.16666700  0.58333400  0.35720700
   0.33333300  0.50000000  0.09762400
   0.50000000  0.75000000  0.09762400
   0.33333300  0.50005157  0.48675722
   0.50000000  0.75005157  0.48675722
   0.33333300  0.66666600  0.22753200
   0.50000000  0.91666700  0.22753200
   0.33333300  0.83333400  0.35720700
   0.50000000  0.58333400  0.35720700
   0.66666700  0.50000000  0.09762400
   0.83333300  0.75000000  0.09762400
   0.66666700  0.50005157  0.48675722
   0.83333300  0.75005157  0.48675722
   0.66666700  0.66666600  0.22753200
   0.83333300  0.91666700  0.22753200
   0.66666700  0.83333400  0.35720700
   0.83333300  0.58333400  0.35720700
