 vasp.6.3.2 27Jun22 (build Mar 15 2023 15:45:48) complex                        
  
 executed on             LinuxIFC date 2024.07.25  09:04:15
 running on    4 total cores
 distrk:  each k-point on    1 cores,    4 groups
 distr:  one band on NCORE=   1 cores,    1 groups


--------------------------------------------------------------------------------------------------------


 INCAR:
   SYSTEM = ni3al
   PREC = Accurate
   EDIFF = 1E-4
   EDIFFG = -2E-2
   ISTART = 0
   NCORE = 4
   ICHARG = 2
   LREAL = Auto
   NSW = 300
   ISIF = 2
   IBRION = 2
   ISMEAR = 0
   SIGMA = 0.1
   ENCUT = 530
   ALGO = Fast
   LMAXMIX = 4
   AMIN = 0.01
   NELM = 150
   LCHARG = .FALSE.
   LWAVE = .FALSE.
   KPAR = 8

 POTCAR:    PAW_PBE O 08Apr2002                   
 POTCAR:    PAW_PBE F 08Apr2002                   
 POTCAR:    PAW_PBE Al 04Jan2001                  
 POTCAR:    PAW_PBE K_sv 06Sep2000                
 POTCAR:    PAW_PBE O 08Apr2002                   
   VRHFIN =O: s2p4                                                                                  
   LEXCH  = PE                                                                                      
   EATOM  =   432.3788 eV,   31.7789 Ry                                                             
                                                                                                    
   TITEL  = PAW_PBE O 08Apr2002                                                                     
   LULTRA =        F    use ultrasoft PP ?                                                          
   IUNSCR =        1    unscreen: 0-lin 1-nonlin 2-no                                               
   RPACOR =    1.200    partial core radius                                                         
   POMASS =   16.000; ZVAL   =    6.000    mass and valenz                                          
   RCORE  =    1.520    outmost cutoff radius                                                       
   RWIGS  =    1.550; RWIGS  =    0.820    wigner-seitz radius (au A)                               
   ENMAX  =  400.000; ENMIN  =  300.000 eV                                                          
   ICORE  =        2    local potential                                                             
   LCOR   =        T    correct aug charges                                                         
   LPAW   =        T    paw PP                                                                      
   EAUG   =  605.392                                                                                
   DEXC   =    0.000                                                                                
   RMAX   =    1.553    core radius for proj-oper                                                   
   RAUG   =    1.300    factor for augmentation sphere                                              
   RDEP   =    1.550    radius for radial grids                                                     
   RDEPT  =    1.329    core radius for aug-charge                                                  
                                                                                                    
   Atomic configuration                                                                             
    4 entries                                                                                       
     n  l   j            E        occ.                                                              
     1  0  0.50      -514.6923   2.0000                                                             
     2  0  0.50       -23.9615   2.0000                                                             
     2  1  0.50        -9.0305   4.0000                                                             
     3  2  1.50        -9.5241   0.0000                                                             
   Description                                                                                      
     l       E           TYP  RCUT    TYP  RCUT                                                     
     0    -23.9615318     23  1.200                                                                 
     0     -9.5240782     23  1.200                                                                 
     1     -9.0304911     23  1.520                                                                 
     1      8.1634956     23  1.520                                                                 
     2     -9.5240782      7  1.500                                                                 
  local pseudopotential read in
  partial core-charges read in
  partial kinetic energy density read in
  kinetic energy density of atom read in
  atomic valenz-charges read in
  non local Contribution for L=           0  read in
    real space projection operators read in
  non local Contribution for L=           0  read in
    real space projection operators read in
  non local Contribution for L=           1  read in
    real space projection operators read in
  non local Contribution for L=           1  read in
    real space projection operators read in
    PAW grid and wavefunctions read in
 
   number of l-projection  operators is LMAX  =           4
   number of lm-projection operators is LMMAX =           8
 
 POTCAR:    PAW_PBE F 08Apr2002                   
   VRHFIN =F: s2p5                                                                                  
   LEXCH  = PE                                                                                      
   EATOM  =   659.6475 eV,   48.4827 Ry                                                             
                                                                                                    
   TITEL  = PAW_PBE F 08Apr2002                                                                     
   LULTRA =        F    use ultrasoft PP ?                                                          
   IUNSCR =        1    unscreen: 0-lin 1-nonlin 2-no                                               
   RPACOR =    1.200    partial core radius                                                         
   POMASS =   18.998; ZVAL   =    7.000    mass and valenz                                          
   RCORE  =    1.520    outmost cutoff radius                                                       
   RWIGS  =    1.500; RWIGS  =    0.794    wigner-seitz radius (au A)                               
   ENMAX  =  400.000; ENMIN  =  300.000 eV                                                          
   ICORE  =        2    local potential                                                             
   LCOR   =        T    correct aug charges                                                         
   LPAW   =        T    paw PP                                                                      
   EAUG   =  613.614                                                                                
   RMAX   =    1.555    core radius for proj-oper                                                   
   RAUG   =    1.300    factor for augmentation sphere                                              
   RDEP   =    1.539    radius for radial grids                                                     
   RDEPT  =    1.299    core radius for aug-charge                                                  
                                                                                                    
   Atomic configuration                                                                             
    4 entries                                                                                       
     n  l   j            E        occ.                                                              
     1  0  0.50      -663.3661   2.0000                                                             
     2  0  0.50       -29.8995   2.0000                                                             
     2  1  0.50       -11.1114   5.0000                                                             
     3  2  1.50       -10.8847   0.0000                                                             
   Description                                                                                      
     l       E           TYP  RCUT    TYP  RCUT                                                     
     0    -29.8995018     23  1.200                                                                 
     0     -9.5240782     23  1.200                                                                 
     1    -11.1113914     23  1.520                                                                 
     1      1.3605826     23  1.520                                                                 
     2    -10.8846608      7  1.500                                                                 
  local pseudopotential read in
  partial core-charges read in
  partial kinetic energy density read in
  atomic valenz-charges read in
  non local Contribution for L=           0  read in
    real space projection operators read in
  non local Contribution for L=           0  read in
    real space projection operators read in
  non local Contribution for L=           1  read in
    real space projection operators read in
  non local Contribution for L=           1  read in
    real space projection operators read in
    PAW grid and wavefunctions read in
 
   number of l-projection  operators is LMAX  =           4
   number of lm-projection operators is LMMAX =           8
 
 POTCAR:    PAW_PBE Al 04Jan2001                  
   VRHFIN =Al: s2p1                                                                                 
   LEXCH  = PE                                                                                      
   EATOM  =    53.5387 eV,    3.9350 Ry                                                             
                                                                                                    
   TITEL  = PAW_PBE Al 04Jan2001                                                                    
   LULTRA =        F    use ultrasoft PP ?                                                          
   IUNSCR =        1    unscreen: 0-lin 1-nonlin 2-no                                               
   RPACOR =    1.500    partial core radius                                                         
   POMASS =   26.981; ZVAL   =    3.000    mass and valenz                                          
   RCORE  =    1.900    outmost cutoff radius                                                       
   RWIGS  =    2.650; RWIGS  =    1.402    wigner-seitz radius (au A)                               
   ENMAX  =  240.300; ENMIN  =  180.225 eV                                                          
   ICORE  =        2    local potential                                                             
   LCOR   =        T    correct aug charges                                                         
   LPAW   =        T    paw PP                                                                      
   EAUG   =  291.052                                                                                
   DEXC   =    0.000                                                                                
   RMAX   =    1.939    core radius for proj-oper                                                   
   RAUG   =    1.300    factor for augmentation sphere                                              
   RDEP   =    1.966    radius for radial grids                                                     
   RDEPT  =    1.856    core radius for aug-charge                                                  
                                                                                                    
   Atomic configuration                                                                             
    6 entries                                                                                       
     n  l   j            E        occ.                                                              
     1  0  0.50     -1511.1048   2.0000                                                             
     2  0  0.50      -108.1629   2.0000                                                             
     2  1  1.50       -69.6402   6.0000                                                             
     3  0  0.50        -7.7528   2.0000                                                             
     3  1  1.50        -2.7121   1.0000                                                             
     3  2  2.50        -2.7212   0.0000                                                             
   Description                                                                                      
     l       E           TYP  RCUT    TYP  RCUT                                                     
     0     -7.7528455     23  1.900                                                                 
     0     -3.3096929     23  1.900                                                                 
     1     -2.7120682     23  1.900                                                                 
     1     13.6058260     23  1.900                                                                 
     2     -2.7211652      7  1.900                                                                 
  local pseudopotential read in
  partial core-charges read in
  partial kinetic energy density read in
  atomic valenz-charges read in
  non local Contribution for L=           0  read in
    real space projection operators read in
  non local Contribution for L=           0  read in
    real space projection operators read in
  non local Contribution for L=           1  read in
    real space projection operators read in
  non local Contribution for L=           1  read in
    real space projection operators read in
    PAW grid and wavefunctions read in
 
   number of l-projection  operators is LMAX  =           4
   number of lm-projection operators is LMMAX =           8
 
 POTCAR:    PAW_PBE K_sv 06Sep2000                
   VRHFIN =K:  3s3p4s                                                                               
   LEXCH  = PE                                                                                      
   EATOM  =   775.0067 eV,   56.9614 Ry                                                             
                                                                                                    
   TITEL  = PAW_PBE K_sv 06Sep2000                                                                  
   LULTRA =        F    use ultrasoft PP ?                                                          
   IUNSCR =        1    unscreen: 0-lin 1-nonlin 2-no                                               
   RPACOR =    2.200    partial core radius                                                         
   POMASS =   39.098; ZVAL   =    9.000    mass and valenz                                          
   RCORE  =    2.300    outmost cutoff radius                                                       
   RWIGS  =    3.000; RWIGS  =    1.588    wigner-seitz radius (au A)                               
   ENMAX  =  259.264; ENMIN  =  194.448 eV                                                          
   RCLOC  =    2.005    cutoff for local pot                                                        
   LCOR   =        T    correct aug charges                                                         
   LPAW   =        T    paw PP                                                                      
   EAUG   =  427.853                                                                                
   DEXC   =    0.000                                                                                
   RMAX   =    2.358    core radius for proj-oper                                                   
   RAUG   =    1.300    factor for augmentation sphere                                              
   RDEP   =    2.372    radius for radial grids                                                     
   RDEPT  =    2.002    core radius for aug-charge                                                  
                                                                                                    
   Atomic configuration                                                                             
    7 entries                                                                                       
     n  l   j            E        occ.                                                              
     1  0  0.50     -3522.0595   2.0000                                                             
     2  0  0.50      -353.3851   2.0000                                                             
     2  1  1.50      -280.0935   6.0000                                                             
     3  0  0.50       -35.3419   2.0000                                                             
     4  0  0.50        -2.3190   1.0000                                                             
     3  1  1.50       -18.8125   6.0000                                                             
     3  2  1.50        -1.3606   0.0000                                                             
   Description                                                                                      
     l       E           TYP  RCUT    TYP  RCUT                                                     
     0    -35.3418873     23  2.300                                                                 
     0     -2.3190215     23  2.300                                                                 
     1    -18.8124623     23  2.300                                                                 
     1    -20.4087390     23  2.300                                                                 
     2     -1.3605826     23  2.300                                                                 
  local pseudopotential read in
  partial core-charges read in
  partial kinetic energy density read in
  atomic valenz-charges read in
  non local Contribution for L=           0  read in
    real space projection operators read in
  non local Contribution for L=           0  read in
    real space projection operators read in
  non local Contribution for L=           1  read in
    real space projection operators read in
  non local Contribution for L=           1  read in
    real space projection operators read in
  non local Contribution for L=           2  read in
    real space projection operators read in
    PAW grid and wavefunctions read in
 
   number of l-projection  operators is LMAX  =           5
   number of lm-projection operators is LMMAX =          13
 
 Optimization of the real space projectors (new method)

 maximal supplied QI-value         = 24.76
 optimisation between [QCUT,QGAM] = [ 11.64, 23.52] = [ 37.91,154.88] Ry 
 Optimized for a Real-space Cutoff    1.16 Angstroem

   l    n(q)    QCUT    max X(q) W(low)/X(q) W(high)/X(q)  e(spline) 
   0      8    11.635    20.381    0.63E-04    0.20E-03    0.27E-06
   0      8    11.635    15.268    0.67E-04    0.21E-03    0.29E-06
   1      8    11.635     5.964    0.19E-03    0.13E-03    0.31E-06
   1      8    11.635     5.382    0.18E-03    0.10E-03    0.27E-06
 Optimization of the real space projectors (new method)

 maximal supplied QI-value         = 24.76
 optimisation between [QCUT,QGAM] = [ 11.64, 23.52] = [ 37.91,154.88] Ry 
 Optimized for a Real-space Cutoff    1.10 Angstroem

   l    n(q)    QCUT    max X(q) W(low)/X(q) W(high)/X(q)  e(spline) 
   0      8    11.635    14.049    0.72E-04    0.20E-03    0.15E-06
   0      8    11.635     8.945    0.85E-04    0.26E-03    0.20E-06
   1      7    11.635     7.086    0.25E-03    0.28E-03    0.25E-06
   1      7    11.635     6.747    0.23E-03    0.23E-03    0.23E-06
 Optimization of the real space projectors (new method)

 maximal supplied QI-value         = 19.84
 optimisation between [QCUT,QGAM] = [ 11.71, 23.41] = [ 38.38,153.51] Ry 
 Optimized for a Real-space Cutoff    1.20 Angstroem

   l    n(q)    QCUT    max X(q) W(low)/X(q) W(high)/X(q)  e(spline) 
   0      8    11.707   176.870    0.56E-04    0.14E-03    0.47E-07
   0      8    11.707   105.762    0.55E-04    0.13E-03    0.46E-07
   1      8    11.707    55.370    0.15E-03    0.19E-04    0.75E-07
   1      8    11.707    20.208    0.14E-03    0.15E-04    0.69E-07
 Optimization of the real space projectors (new method)

 maximal supplied QI-value         = 16.25
 optimisation between [QCUT,QGAM] = [ 11.70, 23.56] = [ 38.34,155.50] Ry 
 Optimized for a Real-space Cutoff    1.35 Angstroem

   l    n(q)    QCUT    max X(q) W(low)/X(q) W(high)/X(q)  e(spline) 
   0     10    11.701    11.234    0.18E-04    0.29E-04    0.22E-07
   0     10    11.701    12.505    0.24E-04    0.57E-04    0.47E-07
   1      9    11.701   167.359    0.12E-03    0.49E-03    0.44E-06
   1      9    11.701   168.875    0.12E-03    0.49E-03    0.44E-06
   2      9    11.701     3.435    0.48E-04    0.68E-04    0.36E-07
  PAW_PBE O 08Apr2002                   :
 energy of atom  1       EATOM= -432.3788
 kinetic energy error for atom=    0.0203 (will be added to EATOM!!)
  PAW_PBE F 08Apr2002                   :
 energy of atom  2       EATOM= -659.6475
 kinetic energy error for atom=    0.0313 (will be added to EATOM!!)
  PAW_PBE Al 04Jan2001                  :
 energy of atom  3       EATOM=  -53.5387
 kinetic energy error for atom=    0.0002 (will be added to EATOM!!)
  PAW_PBE K_sv 06Sep2000                :
 energy of atom  4       EATOM= -775.0067
 kinetic energy error for atom=    0.0012 (will be added to EATOM!!)
 
 
 POSCAR: SCAR
  positions in direct lattice
  velocities in cartesian coordinates
 exchange correlation table for  LEXCH =        8
   RHO(1)=    0.500       N(1)  =     2000
   RHO(2)=  100.500       N(2)  =     4000

 VTST: version 4.2, (08/11/21)

 CHAIN: initializing optimizer
 
 OPT: Using VASP Conjugate-Gradient optimizer
 CHAIN: Read ICHAIN            0
 
 POSCAR: SCAR
  positions in direct lattice
  velocities in cartesian coordinates
 


--------------------------------------------------------------------------------------------------------


 ion  position               nearest neighbor table
   1  0.173  0.986  0.000-  54 1.87  53 1.99
   2  0.423  0.486  0.000-  55 1.87  64 1.99
   3  0.097  0.500  0.101-  50 1.87  52 1.87  61 1.99  55 1.99
   4  0.347  0.000  0.101-  51 1.87  53 1.87  72 1.99  66 1.99
   5  0.153  0.333  0.000-  55 1.87  52 1.99
   6  0.403  0.833  0.000-  66 1.87  53 1.99
   7  0.173  0.680  0.000-  55 1.87  53 1.99
   8  0.423  0.180  0.000-  66 1.87  64 1.99
   9  0.077  0.153  0.101-  51 1.87  52 1.87  60 1.99  54 1.99
  10  0.327  0.653  0.101-  62 1.87  53 1.87  61 1.99  55 1.99
  11  0.077  0.847  0.101-  53 1.87  50 1.87  60 1.99  54 1.99
  12  0.327  0.347  0.101-  64 1.87  51 1.87  61 1.99  55 1.99
  13  0.173  0.320  0.203-  58 1.87  61 1.87  57 1.99  51 1.99
  14  0.423  0.820  0.203-  59 1.87  72 1.87  68 1.99  62 1.99
  15  0.112  0.835  0.305-  22 1.44  59 1.90  56 1.97
  16  0.371  0.290  0.303-  57 1.76  70 1.84  74 2.68
  17  0.153  0.667  0.203-  59 1.87  61 1.87  56 1.99  50 1.99
  18  0.403  0.167  0.203-  70 1.87  72 1.87  57 1.99  51 1.99
  19  0.173  0.014  0.203-  60 1.87  59 1.87  57 1.99  51 1.99
  20  0.423  0.514  0.203-  61 1.87  70 1.87  68 1.99  62 1.99
  21  0.065  0.483  0.301-  56 1.82  58 1.88  74 2.64
  22  0.045  0.982  0.324-  23 1.40  15 1.44
  23  0.151  0.096  0.330-  22 1.40  57 1.80
  24  0.343  0.722  0.302-  68 1.78  59 1.83  74 2.72
  25  0.673  0.986  0.000-  66 1.87  65 1.99
  26  0.923  0.486  0.000-  67 1.87  52 1.99
  27  0.597  0.500  0.101-  62 1.87  64 1.87  73 1.99  67 1.99
  28  0.847  0.000  0.101-  63 1.87  65 1.87  60 1.99  54 1.99
  29  0.653  0.333  0.000-  67 1.87  64 1.99
  30  0.903  0.833  0.000-  54 1.87  65 1.99
  31  0.673  0.680  0.000-  67 1.87  65 1.99
  32  0.923  0.180  0.000-  54 1.87  52 1.99
  33  0.577  0.153  0.101-  63 1.87  64 1.87  72 1.99  66 1.99
  34  0.827  0.653  0.101-  50 1.87  65 1.87  73 1.99  67 1.99
  35  0.577  0.847  0.101-  65 1.87  62 1.87  72 1.99  66 1.99
  36  0.827  0.347  0.101-  52 1.87  63 1.87  73 1.99  67 1.99
  37  0.673  0.320  0.203-  70 1.87  73 1.87  69 1.99  63 1.99
  38  0.923  0.820  0.203-  71 1.87  60 1.87  56 1.99  50 1.99
  39  0.608  0.838  0.304-  46 1.45  71 1.91  68 1.96
  40  0.887  0.261  0.305-  69 1.76  58 1.83
  41  0.653  0.667  0.203-  71 1.87  73 1.87  68 1.99  62 1.99
  42  0.903  0.167  0.203-  58 1.87  60 1.87  69 1.99  63 1.99
  43  0.673  0.014  0.203-  72 1.87  71 1.87  69 1.99  63 1.99
  44  0.923  0.514  0.203-  58 1.87  73 1.87  56 1.99  50 1.99
  45  0.595  0.490  0.299-  49 1.46  68 1.88  70 2.01
  46  0.533  0.984  0.319-  47 1.40  39 1.45
  47  0.627  0.110  0.325-  46 1.40  69 1.81
  48  0.848  0.747  0.303-  71 1.77  56 1.80
  49  0.559  0.476  0.365-  45 1.46
  50  0.000  0.667  0.141-  34 1.87   3 1.87  11 1.87  17 1.99  44 1.99  38 1.99  56 2.68  60 2.82
                            61 2.82  73 2.82  65 3.25  53 3.25  52 3.25
  51  0.250  0.167  0.141-   9 1.87  12 1.87   4 1.87  19 1.99  13 1.99  18 1.99  57 2.68  61 2.82
                            60 2.82  72 2.82  64 3.25  52 3.25  53 3.25
  52  0.000  0.333  0.062-  36 1.87   3 1.87   9 1.87  26 1.99  32 1.99   5 1.99  54 2.82  55 2.82
                            67 2.82  63 3.25  51 3.25  50 3.25
  53  0.250  0.833  0.062-  11 1.87  10 1.87   4 1.87   7 1.99   1 1.99   6 1.99  55 2.82  54 2.82
                            66 2.82  62 3.25  50 3.25  51 3.25
  54  0.000  0.000  0.039-  32 1.87   1 1.87  30 1.87  28 1.99  11 1.99   9 1.99  60 2.68  52 2.82
                            53 2.82  65 2.82
  55  0.250  0.500  0.039-   2 1.87   5 1.87   7 1.87  10 1.99  12 1.99   3 1.99  61 2.68  53 2.82
                            52 2.82  64 2.82
  56  0.000  0.667  0.265-  48 1.80  21 1.82  15 1.97  17 1.99  44 1.99  38 1.99  50 2.68  59 2.82
                            71 2.82  58 2.82
  57  0.250  0.167  0.265-  16 1.76  23 1.80  19 1.99  13 1.99  18 1.99  51 2.68  58 2.82  70 2.82
                            59 2.82
  58  0.000  0.333  0.242-  40 1.83  42 1.87  13 1.87  44 1.87  21 1.88  57 2.82  69 2.82  56 2.82
                            60 3.25  61 3.25  73 3.25
  59  0.250  0.833  0.242-  24 1.83  14 1.87  17 1.87  19 1.87  15 1.90  56 2.82  68 2.82  57 2.82
                            61 3.25  60 3.25  72 3.25
  60  0.000  0.000  0.164-  38 1.87  19 1.87  42 1.87  28 1.99   9 1.99  11 1.99  54 2.68  50 2.82
                            51 2.82  63 2.82  58 3.25  59 3.25  71 3.25
  61  0.250  0.500  0.164-  13 1.87  20 1.87  17 1.87  12 1.99  10 1.99   3 1.99  55 2.68  51 2.82
                            50 2.82  62 2.82  59 3.25  58 3.25  70 3.25
  62  0.500  0.667  0.141-  10 1.87  35 1.87  27 1.87  20 1.99  14 1.99  41 1.99  68 2.68  72 2.82
                            61 2.82  73 2.82  65 3.25  53 3.25  64 3.25
  63  0.750  0.167  0.141-  33 1.87  36 1.87  28 1.87  43 1.99  37 1.99  42 1.99  69 2.68  73 2.82
                            72 2.82  60 2.82  64 3.25  52 3.25  65 3.25
  64  0.500  0.333  0.062-  12 1.87  33 1.87  27 1.87   2 1.99   8 1.99  29 1.99  66 2.82  55 2.82
                            67 2.82  51 3.25  63 3.25  62 3.25
  65  0.750  0.833  0.062-  35 1.87  34 1.87  28 1.87  25 1.99  31 1.99  30 1.99  67 2.82  66 2.82
                            54 2.82  50 3.25  62 3.25  63 3.25
  66  0.500  0.000  0.039-   8 1.87  25 1.87   6 1.87   4 1.99  33 1.99  35 1.99  72 2.68  64 2.82
                            65 2.82  53 2.82
  67  0.750  0.500  0.039-  31 1.87  26 1.87  29 1.87  27 1.99  34 1.99  36 1.99  73 2.68  65 2.82
                            52 2.82  64 2.82
  68  0.500  0.667  0.265-  24 1.78  45 1.88  39 1.96  20 1.99  14 1.99  41 1.99  62 2.68  59 2.82
                            71 2.82  70 2.82
  69  0.750  0.167  0.265-  40 1.76  47 1.81  43 1.99  37 1.99  42 1.99  63 2.68  58 2.82  70 2.82
                            71 2.82
  70  0.500  0.333  0.242-  16 1.84  18 1.87  37 1.87  20 1.87  45 2.01  57 2.82  69 2.82  68 2.82
                            72 3.25  61 3.25  73 3.25
  71  0.750  0.833  0.242-  48 1.77  41 1.87  38 1.87  43 1.87  39 1.91  56 2.82  68 2.82  69 2.82
                            73 3.25  72 3.25  60 3.25
  72  0.500  0.000  0.164-  14 1.87  43 1.87  18 1.87   4 1.99  35 1.99  33 1.99  66 2.68  62 2.82
                            63 2.82  51 2.82  70 3.25  59 3.25  71 3.25
  73  0.750  0.500  0.164-  37 1.87  44 1.87  41 1.87  27 1.99  36 1.99  34 1.99  67 2.68  63 2.82
                            50 2.82  62 2.82  71 3.25  70 3.25  58 3.25
  74  0.262  0.494  0.386-  21 2.64  16 2.68  24 2.72
 
  LATTYP: Found a simple orthorhombic cell.
 ALAT       =     8.3267490000
 B/A-ratio  =     1.1547005920
 C/A-ratio  =     2.5893165508
  
  Lattice vectors:
  
 A1 = (   0.0000000000,  -8.3267490000,   0.0000000000)
 A2 = (   9.6149020000,   0.0000000000,   0.0000000000)
 A3 = (   0.0000000000,   0.0000000000,  21.5605890000)


Analysis of symmetry for initial positions (statically):
=====================================================================
 Subroutine PRICEL returns:
 Original cell was already a primitive cell.
 

 Routine SETGRP: Setting up the symmetry group for a 
 simple orthorhombic supercell.


 Subroutine GETGRP returns: Found  1 space group operations
 (whereof  1 operations were pure point group operations)
 out of a pool of  8 trial point group operations.


The static configuration has the point symmetry C_1 .


Analysis of symmetry for dynamics (positions and initial velocities):
=====================================================================
 Subroutine PRICEL returns:
 Original cell was already a primitive cell.
 

 Routine SETGRP: Setting up the symmetry group for a 
 simple orthorhombic supercell.


 Subroutine GETGRP returns: Found  1 space group operations
 (whereof  1 operations were pure point group operations)
 out of a pool of  8 trial point group operations.


The dynamic configuration has the point symmetry C_1 .


Analysis of constrained symmetry for selective dynamics:
=====================================================================
 Subroutine PRICEL returns:
 Original cell was already a primitive cell.
 

 Routine SETGRP: Setting up the symmetry group for a 
 simple orthorhombic supercell.


 Subroutine GETGRP returns: Found  1 space group operations
 (whereof  1 operations were pure point group operations)
 out of a pool of  8 trial point group operations.


The constrained configuration has the point symmetry C_1 .


 Subroutine INISYM returns: Found  1 space group operations
 (whereof  1 operations are pure point group operations),
 and found     1 'primitive' translations


----------------------------------------------------------------------------------------

                                     Primitive cell                                     

  volume of cell :    1726.1596

  direct lattice vectors                    reciprocal lattice vectors
     9.614902000  0.000000000  0.000000000     0.104005220  0.000000000  0.000000000
     0.000000000  8.326749000  0.000000000     0.000000000  0.120094889  0.000000000
     0.000000000  0.000000000 21.560589000     0.000000000  0.000000000  0.046380922

  length of vectors
     9.614902000  8.326749000 21.560589000     0.104005220  0.120094889  0.046380922

  position of ions in fractional coordinates (direct lattice)
     0.173456000  0.986421000  0.000000000
     0.423456000  0.486421000  0.000000000
     0.096912000  0.500000000  0.101429000
     0.346913000  0.000000000  0.101429000
     0.153088000  0.333333000  0.000000000
     0.403088000  0.833333000  0.000000000
     0.173456000  0.680246000  0.000000000
     0.423456000  0.180245000  0.000000000
     0.076544000  0.153087000  0.101429000
     0.326544000  0.653087000  0.101429000
     0.076544000  0.846913000  0.101429000
     0.326544000  0.346913000  0.101429000
     0.173456000  0.319755000  0.202858000
     0.423456000  0.819755000  0.202858000
     0.111830450  0.835112081  0.305105035
     0.371454888  0.289620155  0.303030926
     0.153087000  0.666667000  0.202858000
     0.403088000  0.166667000  0.202858000
     0.173456000  0.013580000  0.202858000
     0.423456000  0.513580000  0.202858000
     0.064912501  0.483070648  0.300611447
     0.045429596  0.981545832  0.324379297
     0.150513925  0.096228376  0.330485284
     0.342619966  0.721851180  0.302437946
     0.673456000  0.986421000  0.000000000
     0.923456000  0.486421000  0.000000000
     0.596913000  0.500000000  0.101429000
     0.846913000  0.000000000  0.101429000
     0.653088000  0.333333000  0.000000000
     0.903088000  0.833333000  0.000000000
     0.673456000  0.680245000  0.000000000
     0.923456000  0.180245000  0.000000000
     0.576544000  0.153087000  0.101429000
     0.826544000  0.653087000  0.101429000
     0.576544000  0.846913000  0.101429000
     0.826544000  0.346913000  0.101429000
     0.673456000  0.319755000  0.202858000
     0.923456000  0.819755000  0.202858000
     0.608498475  0.838127997  0.304376408
     0.887002043  0.261071641  0.304655853
     0.653088000  0.666667000  0.202858000
     0.903088000  0.166667000  0.202858000
     0.673456000  0.013580000  0.202858000
     0.923456000  0.513579000  0.202858000
     0.594879283  0.489980069  0.299334004
     0.532518503  0.983523383  0.318833390
     0.627332117  0.110264800  0.324926122
     0.848448463  0.747165021  0.302910429
     0.559017864  0.476114810  0.365129895
     0.000000000  0.666667000  0.140706000
     0.250000000  0.166667000  0.140706000
     0.000000000  0.333333000  0.062152000
     0.250000000  0.833333000  0.062152000
     0.000000000  0.000000000  0.039277000
     0.250000000  0.500000000  0.039277000
     0.000000000  0.666667000  0.265009000
     0.250000000  0.166667000  0.265009000
     0.000000000  0.333333000  0.242134000
     0.250000000  0.833333000  0.242134000
     0.000000000  0.000000000  0.163581000
     0.250000000  0.500000000  0.163581000
     0.500000000  0.666667000  0.140706000
     0.750000000  0.166667000  0.140706000
     0.500000000  0.333333000  0.062152000
     0.750000000  0.833333000  0.062152000
     0.500000000  0.000000000  0.039277000
     0.750000000  0.500000000  0.039277000
     0.500000000  0.666667000  0.265009000
     0.750000000  0.166667000  0.265009000
     0.500000000  0.333333000  0.242134000
     0.750000000  0.833333000  0.242134000
     0.500000000  0.000000000  0.163581000
     0.750000000  0.500000000  0.163581000
     0.262028294  0.494280272  0.385695180

  ion indices of the primitive-cell ions
   primitive index   ion index
                 1           1
                 2           2
                 3           3
                 4           4
                 5           5
                 6           6
                 7           7
                 8           8
                 9           9
                10          10
                11          11
                12          12
                13          13
                14          14
                15          15
                16          16
                17          17
                18          18
                19          19
                20          20
                21          21
                22          22
                23          23
                24          24
                25          25
                26          26
                27          27
                28          28
                29          29
                30          30
                31          31
                32          32
                33          33
                34          34
                35          35
                36          36
                37          37
                38          38
                39          39
                40          40
                41          41
                42          42
                43          43
                44          44
                45          45
                46          46
                47          47
                48          48
                49          49
                50          50
                51          51
                52          52
                53          53
                54          54
                55          55
                56          56
                57          57
                58          58
                59          59
                60          60
                61          61
                62          62
                63          63
                64          64
                65          65
                66          66
                67          67
                68          68
                69          69
                70          70
                71          71
                72          72
                73          73
                74          74

----------------------------------------------------------------------------------------

 
 
 KPOINTS: K-Spacing Value to Generate K-Mesh: 0.03

Automatic generation of k-mesh.
 Grid dimensions read from file:
 generate k-points for:    3    4    1

 Generating k-lattice:

  Cartesian coordinates                     Fractional coordinates (reciprocal lattice)
     0.034668407  0.000000000  0.000000000     0.333333333  0.000000000  0.000000000
     0.000000000  0.030023722  0.000000000     0.000000000  0.250000000  0.000000000
     0.000000000  0.000000000  0.046380922     0.000000000  0.000000000  1.000000000

  Length of vectors
     0.034668407  0.030023722  0.046380922

  Shift w.r.t. Gamma in fractional coordinates (k-lattice)
     0.000000000  0.000000000  0.000000000

 
 Subroutine IBZKPT returns following result:
 ===========================================
 
 Found      7 irreducible k-points:
 
 Following reciprocal coordinates:
            Coordinates               Weight
  0.000000  0.000000  0.000000      1.000000
  0.333333  0.000000  0.000000      2.000000
  0.000000  0.250000  0.000000      2.000000
  0.333333  0.250000  0.000000      2.000000
 -0.333333  0.250000  0.000000      2.000000
  0.000000  0.500000  0.000000      1.000000
  0.333333  0.500000  0.000000      2.000000
 
 Following cartesian coordinates:
            Coordinates               Weight
  0.000000  0.000000  0.000000      1.000000
  0.034668  0.000000  0.000000      2.000000
  0.000000  0.030024  0.000000      2.000000
  0.034668  0.030024  0.000000      2.000000
 -0.034668  0.030024  0.000000      2.000000
  0.000000  0.060047  0.000000      1.000000
  0.034668  0.060047  0.000000      2.000000
 


--------------------------------------------------------------------------------------------------------




 Dimension of arrays:
   k-points           NKPTS =      7   k-points in BZ     NKDIM =      7   number of bands    NBANDS=    226
   number of dos      NEDOS =    301   number of ions     NIONS =     74
   non local maximal  LDIM  =      5   non local SUM 2l+1 LMDIM =     13
   total plane-waves  NPLWV = 746496
   max r-space proj   IRMAX =   4505   max aug-charges    IRDMAX=  20326
   dimension x,y,z NGX =    72 NGY =   64 NGZ =  162
   dimension x,y,z NGXF=   144 NGYF=  128 NGZF=  324
   support grid    NGXF=   144 NGYF=  128 NGZF=  324
   ions per type =              48   1  24   1
   NGX,Y,Z   is equivalent  to a cutoff of  12.45, 12.78, 12.49 a.u.
   NGXF,Y,Z  is equivalent  to a cutoff of  24.90, 25.56, 24.98 a.u.

 SYSTEM =  ni3al                                   
 POSCAR =  SCAR                                    

 Startparameter for this run:
   NWRITE =      2    write-flag & timer
   PREC   = accura    normal or accurate (medium, high low for compatibility)
   ISTART =      0    job   : 0-new  1-cont  2-samecut
   ICHARG =      2    charge: 1-file 2-atom 10-const
   ISPIN  =      1    spin polarized calculation?
   LNONCOLLINEAR =      F non collinear calculations
   LSORBIT =      F    spin-orbit coupling
   INIWAV =      1    electr: 0-lowe 1-rand  2-diag
   LASPH  =      F    aspherical Exc in radial PAW
 Electronic Relaxation 1
   ENCUT  =  530.0 eV  38.95 Ry    6.24 a.u.  18.05 15.63 40.47*2*pi/ulx,y,z
   ENINI  =  530.0     initial cutoff
   ENAUG  =  613.6 eV  augmentation charge cutoff
   NELM   =    150;   NELMIN=  2; NELMDL= -5     # of ELM steps 
   EDIFF  = 0.1E-03   stopping-criterion for ELM
   LREAL  =      T    real-space projection
   NLSPLINE    = F    spline interpolate recip. space projectors
   LCOMPAT=      F    compatible to vasp.4.4
   GGA_COMPAT  = T    GGA compatible to vasp.4.4-vasp.4.6
   LMAXPAW     = -100 max onsite density
   LMAXMIX     =    4 max onsite mixed and CHGCAR
   VOSKOWN=      0    Vosko Wilk Nusair interpolation
   ROPT   =   -0.00025  -0.00025  -0.00025  -0.00025
 Ionic relaxation
   EDIFFG = -.2E-01   stopping-criterion for IOM
   NSW    =    300    number of steps for IOM
   NBLOCK =      1;   KBLOCK =    300    inner block; outer block 
   IBRION =      2    ionic relax: 0-MD 1-quasi-New 2-CG
   NFREE  =      1    steps in history (QN), initial steepest desc. (CG)
   ISIF   =      2    stress and relaxation
   IWAVPR =     11    prediction:  0-non 1-charg 2-wave 3-comb
   ISYM   =      2    0-nonsym 1-usesym 2-fastsym
   LCORR  =      T    Harris-Foulkes like correction to forces

   POTIM  = 0.5000    time-step for ionic-motion
   TEIN   =    0.0    initial temperature
   TEBEG  =    0.0;   TEEND  =   0.0 temperature during run
   SMASS  =  -3.00    Nose mass-parameter (am)
   estimated Nose-frequenzy (Omega)   =  0.10E-29 period in steps = 0.13E+47 mass=  -0.211E-26a.u.
   SCALEE = 1.0000    scale energy and forces
   NPACO  =    256;   APACO  = 10.0  distance and # of slots for P.C.
   PSTRESS=    0.0 pullay stress

  Mass of Ions in am
   POMASS =  16.00 19.00 26.98 39.10
  Ionic Valenz
   ZVAL   =   6.00  7.00  3.00  9.00
  Atomic Wigner-Seitz radii
   RWIGS  =  -1.00 -1.00 -1.00 -1.00
  virtual crystal weights 
   VCA    =   1.00  1.00  1.00  1.00
   NELECT =     376.0000    total number of electrons
   NUPDOWN=      -1.0000    fix difference up-down

 DOS related values:
   EMIN   =  10.00;   EMAX   =-10.00  energy-range for DOS
   EFERMI =   0.00
   ISMEAR =     0;   SIGMA  =   0.10  broadening in eV -4-tet -1-fermi 0-gaus

 Electronic relaxation 2 (details)
   IALGO  =     68    algorithm
   LDIAG  =      T    sub-space diagonalisation (order eigenvalues)
   LSUBROT=      F    optimize rotation matrix (better conditioning)
   TURBO    =      0    0=normal 1=particle mesh
   IRESTART =      0    0=no restart 2=restart with 2 vectors
   NREBOOT  =      0    no. of reboots
   NMIN     =      0    reboot dimension
   EREF     =   0.00    reference energy to select bands
   IMIX   =      4    mixing-type and parameters
     AMIX     =   0.40;   BMIX     =  1.00
     AMIX_MAG =   1.60;   BMIX_MAG =  1.00
     AMIN     =   0.01
     WC   =   100.;   INIMIX=   1;  MIXPRE=   1;  MAXMIX= -45

 Intra band minimization:
   WEIMIN = 0.0010     energy-eigenvalue tresh-hold
   EBREAK =  0.11E-06  absolut break condition
   DEPER  =   0.30     relativ break condition  

   TIME   =   0.40     timestep for ELM

  volume/ion in A,a.u.               =      23.33       157.41
  Fermi-wavevector in a.u.,A,eV,Ry     =   0.985017  1.861413 13.201172  0.970259
  Thomas-Fermi vector in A             =   2.116293
 
 Write flags
   LWAVE        =      F    write WAVECAR
   LDOWNSAMPLE  =      F    k-point downsampling of WAVECAR
   LCHARG       =      F    write CHGCAR
   LVTOT        =      F    write LOCPOT, total local potential
   LVHAR        =      F    write LOCPOT, Hartree potential only
   LELF         =      F    write electronic localiz. function (ELF)
   LORBIT       =      0    0 simple, 1 ext, 2 COOP (PROOUT), +10 PAW based schemes


 Dipole corrections
   LMONO  =      F    monopole corrections only (constant potential shift)
   LDIPOL =      F    correct potential (dipole corrections)
   IDIPOL =      0    1-x, 2-y, 3-z, 4-all directions 
   EPSILON=  1.0000000 bulk dielectric constant

 Exchange correlation treatment:
   GGA     =    --    GGA type
   LEXCH   =     8    internal setting for exchange type
   LIBXC   =     F    Libxc                    
   VOSKOWN =     0    Vosko Wilk Nusair interpolation
   LHFCALC =     F    Hartree Fock is set to
   LHFONE  =     F    Hartree Fock one center treatment
   AEXX    =    0.0000 exact exchange contribution

 Linear response parameters
   LEPSILON=     F    determine dielectric tensor
   LRPA    =     F    only Hartree local field effects (RPA)
   LNABLA  =     F    use nabla operator in PAW spheres
   LVEL    =     F    velocity operator in full k-point grid
   CSHIFT  =0.1000    complex shift for real part using Kramers Kronig
   OMEGAMAX=  -1.0    maximum frequency
   DEG_THRESHOLD= 0.2000000E-02 threshold for treating states as degnerate
   RTIME   =   -0.100 relaxation time in fs
  (WPLASMAI=    0.000 imaginary part of plasma frequency in eV, 0.658/RTIME)
   DFIELD  = 0.0000000 0.0000000 0.0000000 field for delta impulse in time
 
  Optional k-point grid parameters
   LKPOINTS_OPT  =     F    use optional k-point grid
   KPOINTS_OPT_MODE=     1    mode for optional k-point grid
 
 Orbital magnetization related:
   ORBITALMAG=     F  switch on orbital magnetization
   LCHIMAG   =     F  perturbation theory with respect to B field
   DQ        =  0.001000  dq finite difference perturbation B field
   LLRAUG    =     F  two centre corrections for induced B field



--------------------------------------------------------------------------------------------------------


 conjugate gradient relaxation of ions
   using selective dynamics as specified on POSCAR
 charge density and potential will be updated during run
 non-spin polarized calculation
 RMM-DIIS sequential band-by-band and
  variant of blocked Davidson during initial phase
 perform sub-space diagonalisation
    before iterative eigenvector-optimisation
 modified Broyden-mixing scheme, WC =      100.0
 initial mixing is a Kerker type mixing with AMIX =  0.4000 and BMIX =      1.0000
 Hartree-type preconditioning will be used
 using additional bands           38
 real space projection scheme for non local part
 use partial core corrections
 calculate Harris-corrections to forces 
   (improved forces if not selfconsistent)
 use gradient corrections 
 use of overlap-Matrix (Vanderbilt PP)
 Gauss-broadening in eV      SIGMA  =   0.10


--------------------------------------------------------------------------------------------------------


  energy-cutoff  :      530.00
  volume of cell :     1726.16
      direct lattice vectors                 reciprocal lattice vectors
     9.614902000  0.000000000  0.000000000     0.104005220  0.000000000  0.000000000
     0.000000000  8.326749000  0.000000000     0.000000000  0.120094889  0.000000000
     0.000000000  0.000000000 21.560589000     0.000000000  0.000000000  0.046380922

  length of vectors
     9.614902000  8.326749000 21.560589000     0.104005220  0.120094889  0.046380922


 
 k-points in units of 2pi/SCALE and weight: K-Spacing Value to Generate K-Mesh: 0.03
   0.00000000  0.00000000  0.00000000       0.083
   0.03466841  0.00000000  0.00000000       0.167
   0.00000000  0.03002372  0.00000000       0.167
   0.03466841  0.03002372  0.00000000       0.167
  -0.03466841  0.03002372  0.00000000       0.167
   0.00000000  0.06004744  0.00000000       0.083
   0.03466841  0.06004744  0.00000000       0.167
 
 k-points in reciprocal lattice and weights: K-Spacing Value to Generate K-Mesh: 0.03
   0.00000000  0.00000000  0.00000000       0.083
   0.33333333  0.00000000  0.00000000       0.167
   0.00000000  0.25000000  0.00000000       0.167
   0.33333333  0.25000000  0.00000000       0.167
  -0.33333333  0.25000000  0.00000000       0.167
   0.00000000  0.50000000  0.00000000       0.083
   0.33333333  0.50000000  0.00000000       0.167
 
 position of ions in fractional coordinates (direct lattice) 
   0.17345600  0.98642100  0.00000000
   0.42345600  0.48642100  0.00000000
   0.09691200  0.50000000  0.10142900
   0.34691300  0.00000000  0.10142900
   0.15308800  0.33333300  0.00000000
   0.40308800  0.83333300  0.00000000
   0.17345600  0.68024600  0.00000000
   0.42345600  0.18024500  0.00000000
   0.07654400  0.15308700  0.10142900
   0.32654400  0.65308700  0.10142900
   0.07654400  0.84691300  0.10142900
   0.32654400  0.34691300  0.10142900
   0.17345600  0.31975500  0.20285800
   0.42345600  0.81975500  0.20285800
   0.11183045  0.83511208  0.30510504
   0.37145489  0.28962016  0.30303093
   0.15308700  0.66666700  0.20285800
   0.40308800  0.16666700  0.20285800
   0.17345600  0.01358000  0.20285800
   0.42345600  0.51358000  0.20285800
   0.06491250  0.48307065  0.30061145
   0.04542960  0.98154583  0.32437930
   0.15051393  0.09622838  0.33048528
   0.34261997  0.72185118  0.30243795
   0.67345600  0.98642100  0.00000000
   0.92345600  0.48642100  0.00000000
   0.59691300  0.50000000  0.10142900
   0.84691300  0.00000000  0.10142900
   0.65308800  0.33333300  0.00000000
   0.90308800  0.83333300  0.00000000
   0.67345600  0.68024500  0.00000000
   0.92345600  0.18024500  0.00000000
   0.57654400  0.15308700  0.10142900
   0.82654400  0.65308700  0.10142900
   0.57654400  0.84691300  0.10142900
   0.82654400  0.34691300  0.10142900
   0.67345600  0.31975500  0.20285800
   0.92345600  0.81975500  0.20285800
   0.60849847  0.83812800  0.30437641
   0.88700204  0.26107164  0.30465585
   0.65308800  0.66666700  0.20285800
   0.90308800  0.16666700  0.20285800
   0.67345600  0.01358000  0.20285800
   0.92345600  0.51357900  0.20285800
   0.59487928  0.48998007  0.29933400
   0.53251850  0.98352338  0.31883339
   0.62733212  0.11026480  0.32492612
   0.84844846  0.74716502  0.30291043
   0.55901786  0.47611481  0.36512990
   0.00000000  0.66666700  0.14070600
   0.25000000  0.16666700  0.14070600
   0.00000000  0.33333300  0.06215200
   0.25000000  0.83333300  0.06215200
   0.00000000  0.00000000  0.03927700
   0.25000000  0.50000000  0.03927700
   0.00000000  0.66666700  0.26500900
   0.25000000  0.16666700  0.26500900
   0.00000000  0.33333300  0.24213400
   0.25000000  0.83333300  0.24213400
   0.00000000  0.00000000  0.16358100
   0.25000000  0.50000000  0.16358100
   0.50000000  0.66666700  0.14070600
   0.75000000  0.16666700  0.14070600
   0.50000000  0.33333300  0.06215200
   0.75000000  0.83333300  0.06215200
   0.50000000  0.00000000  0.03927700
   0.75000000  0.50000000  0.03927700
   0.50000000  0.66666700  0.26500900
   0.75000000  0.16666700  0.26500900
   0.50000000  0.33333300  0.24213400
   0.75000000  0.83333300  0.24213400
   0.50000000  0.00000000  0.16358100
   0.75000000  0.50000000  0.16358100
   0.26202829  0.49428027  0.38569518
 
 position of ions in cartesian coordinates  (Angst):
   1.66776244  8.21368008  0.00000000
   4.07148794  4.05030558  0.00000000
   0.93179938  4.16337450  2.18686898
   3.33553450  0.00000000  2.18686898
   1.47192612  2.77558022  0.00000000
   3.87565162  6.93895472  0.00000000
   1.66776244  5.66423770  0.00000000
   4.07148794  1.50085487  0.00000000
   0.73596306  1.27471702  2.18686898
   3.13968856  5.43809152  2.18686898
   0.73596306  7.05203198  2.18686898
   3.13968856  2.88865748  2.18686898
   1.66776244  2.66251963  4.37373796
   4.07148794  6.82589413  4.37373796
   1.07523882  6.95376868  6.57824426
   3.57150235  2.41159434  6.53352524
   1.47191650  5.55116878  4.37373796
   3.87565162  1.38779428  4.37373796
   1.66776244  0.11307725  4.37373796
   4.07148794  4.27645175  4.37373796
   0.62412733  4.02240803  6.48135987
   0.43680111  8.17308578  6.99380871
   1.44717664  0.80126953  7.12545738
   3.29425739  6.01067359  6.52074026
   6.47521344  8.21368008  0.00000000
   8.87893894  4.05030558  0.00000000
   5.73926000  4.16337450  2.18686898
   8.14298550  0.00000000  2.18686898
   6.27937712  2.77558022  0.00000000
   8.68310262  6.93895472  0.00000000
   6.47521344  5.66422937  0.00000000
   8.87893894  1.50085487  0.00000000
   5.54341406  1.27471702  2.18686898
   7.94713956  5.43809152  2.18686898
   5.54341406  7.05203198  2.18686898
   7.94713956  2.88865748  2.18686898
   6.47521344  2.66251963  4.37373796
   8.87893894  6.82589413  4.37373796
   5.85065320  6.97888146  6.56253462
   8.52843772  2.17387803  6.56855963
   6.27937712  5.55116878  4.37373796
   8.68310262  1.38779428  4.37373796
   6.47521344  0.11307725  4.37373796
   8.87893894  4.27644342  4.37373796
   5.71970600  4.07994105  6.45381743
   5.12011322  8.18955235  6.87423569
   6.03173682  0.91814731  7.00559858
   8.15774883  6.22145559  6.53092726
   5.37490198  3.96448851  7.87241561
   0.00000000  5.55116878  3.03370424
   2.40372550  1.38779428  3.03370424
   0.00000000  2.77558022  1.34003373
   2.40372550  6.93895472  1.34003373
   0.00000000  0.00000000  0.84683525
   2.40372550  4.16337450  0.84683525
   0.00000000  5.55116878  5.71375013
   2.40372550  1.38779428  5.71375013
   0.00000000  2.77558022  5.22055166
   2.40372550  6.93895472  5.22055166
   0.00000000  0.00000000  3.52690271
   2.40372550  4.16337450  3.52690271
   4.80745100  5.55116878  3.03370424
   7.21117650  1.38779428  3.03370424
   4.80745100  2.77558022  1.34003373
   7.21117650  6.93895472  1.34003373
   4.80745100  0.00000000  0.84683525
   7.21117650  4.16337450  0.84683525
   4.80745100  5.55116878  5.71375013
   7.21117650  1.38779428  5.71375013
   4.80745100  2.77558022  5.22055166
   7.21117650  6.93895472  5.22055166
   4.80745100  0.00000000  3.52690271
   7.21117650  4.16337450  3.52690271
   2.51937637  4.11574776  8.31581525
 


--------------------------------------------------------------------------------------------------------


 k-point   1 :   0.0000 0.0000 0.0000  plane waves:   47839
 k-point   2 :   0.3333 0.0000 0.0000  plane waves:   47902
 k-point   3 :   0.0000 0.2500 0.0000  plane waves:   47799
 k-point   4 :   0.3333 0.2500 0.0000  plane waves:   47841
 k-point   5 :  -0.3333 0.2500 0.0000  plane waves:   47841
 k-point   6 :   0.0000 0.5000 0.0000  plane waves:   47844
 k-point   7 :   0.3333 0.5000 0.0000  plane waves:   47806

 maximum and minimum number of plane-waves per node :     47902    47799

 maximum number of plane-waves:     47902
 maximum index in each direction: 
   IXMAX=   18   IYMAX=   15   IZMAX=   40
   IXMIN=  -18   IYMIN=  -16   IZMIN=  -40


 serial   3D FFT for wavefunctions
 parallel 3D FFT for charge:
    minimum data exchange during FFTs selected (reduces bandwidth)


 total amount of memory used by VASP MPI-rank0  1068466. kBytes
=======================================================================

   base      :      30000. kBytes
   nonlr-proj:      20775. kBytes
   fftplans  :     204368. kBytes
   grid      :     461979. kBytes
   one-center:        600. kBytes
   wavefun   :     350744. kBytes
 
     INWAV:  cpu time      0.0003: real time      0.0000
 Broyden mixing: mesh for mixing (old mesh)
   NGX = 37   NGY = 31   NGZ = 81
  (NGX  =144   NGY  =128   NGZ  =324)
  gives a total of  92907 points

 initial charge density was supplied:
 charge density of overlapping atoms calculated
 number of electron     376.0000000 magnetization 
 keeping initial charge density in first step


--------------------------------------------------------------------------------------------------------


 Maximum index for non-local projection operator         4333
 Maximum index for augmentation-charges        19529 (set IRDMAX)


--------------------------------------------------------------------------------------------------------


 First call to EWALD:  gamma=   0.148
 Maximum number of real-space cells 3x 4x 2
 Maximum number of reciprocal cells 2x 2x 5

    FEWALD:  cpu time      0.0140: real time      0.0070


--------------------------------------- Iteration      1(   1)  ---------------------------------------


    POTLOK:  cpu time      8.7618: real time      1.4964
    SETDIJ:  cpu time      0.4571: real time      0.0653
     EDDAV:  cpu time     29.6912: real time      4.2986
       DOS:  cpu time      0.0201: real time      0.0029
    --------------------------------------------
      LOOP:  cpu time     38.9307: real time      5.8633

 eigenvalue-minimisations  :  3244
 total energy-change (2. order) : 0.3566102E+04  (-0.1753912E+05)
 number of electron     376.0000000 magnetization 
 augmentation part      376.0000000 magnetization 

 Free energy of the ion-electron system (eV)
  ---------------------------------------------------
  alpha Z        PSCENC =       271.78674889
  Ewald energy   TEWEN  =     84071.76900683
  -Hartree energ DENC   =   -105035.94506015
  -exchange      EXHF   =         0.00000000
  -V(xc)+E(xc)   XCENC  =       783.02151472
  PAW double counting   =     19356.41094894   -18675.89497373
  entropy T*S    EENTRO =        -0.08380573
  eigenvalues    EBANDS =      -677.71666445
  atomic energy  EATOM  =     23472.75423047
  Solvation  Ediel_sol  =         0.00000000
  ---------------------------------------------------
  free energy    TOTEN  =      3566.10194579 eV

  energy without entropy =     3566.18575152  energy(sigma->0) =     3566.14384866


--------------------------------------------------------------------------------------------------------




--------------------------------------- Iteration      1(   2)  ---------------------------------------


     EDDAV:  cpu time     36.1308: real time      5.1743
       DOS:  cpu time      0.0201: real time      0.0030
    --------------------------------------------
      LOOP:  cpu time     36.1509: real time      5.1773

 eigenvalue-minimisations  :  4246
 total energy-change (2. order) :-0.3572603E+04  (-0.3480266E+04)
 number of electron     376.0000000 magnetization 
 augmentation part      376.0000000 magnetization 

 Free energy of the ion-electron system (eV)
  ---------------------------------------------------
  alpha Z        PSCENC =       271.78674889
  Ewald energy   TEWEN  =     84071.76900683
  -Hartree energ DENC   =   -105035.94506015
  -exchange      EXHF   =         0.00000000
  -V(xc)+E(xc)   XCENC  =       783.02151472
  PAW double counting   =     19356.41094894   -18675.89497373
  entropy T*S    EENTRO =        -0.08284401
  eigenvalues    EBANDS =     -4250.32111988
  atomic energy  EATOM  =     23472.75423047
  Solvation  Ediel_sol  =         0.00000000
  ---------------------------------------------------
  free energy    TOTEN  =        -6.50154792 eV

  energy without entropy =       -6.41870390  energy(sigma->0) =       -6.46012591


--------------------------------------------------------------------------------------------------------




--------------------------------------- Iteration      1(   3)  ---------------------------------------


     EDDAV:  cpu time     31.9820: real time      4.5750
       DOS:  cpu time      0.0128: real time      0.0018
    --------------------------------------------
      LOOP:  cpu time     31.9947: real time      4.5768

 eigenvalue-minimisations  :  3632
 total energy-change (2. order) :-0.5176325E+03  (-0.5101556E+03)
 number of electron     376.0000000 magnetization 
 augmentation part      376.0000000 magnetization 

 Free energy of the ion-electron system (eV)
  ---------------------------------------------------
  alpha Z        PSCENC =       271.78674889
  Ewald energy   TEWEN  =     84071.76900683
  -Hartree energ DENC   =   -105035.94506015
  -exchange      EXHF   =         0.00000000
  -V(xc)+E(xc)   XCENC  =       783.02151472
  PAW double counting   =     19356.41094894   -18675.89497373
  entropy T*S    EENTRO =        -0.19231933
  eigenvalues    EBANDS =     -4767.84413479
  atomic energy  EATOM  =     23472.75423047
  Solvation  Ediel_sol  =         0.00000000
  ---------------------------------------------------
  free energy    TOTEN  =      -524.13403814 eV

  energy without entropy =     -523.94171881  energy(sigma->0) =     -524.03787848


--------------------------------------------------------------------------------------------------------




--------------------------------------- Iteration      1(   4)  ---------------------------------------


     EDDAV:  cpu time     32.6654: real time      4.7264
       DOS:  cpu time      0.0248: real time      0.0038
    --------------------------------------------
      LOOP:  cpu time     32.6902: real time      4.7302

 eigenvalue-minimisations  :  3736
 total energy-change (2. order) :-0.1513784E+02  (-0.1504441E+02)
 number of electron     376.0000000 magnetization 
 augmentation part      376.0000000 magnetization 

 Free energy of the ion-electron system (eV)
  ---------------------------------------------------
  alpha Z        PSCENC =       271.78674889
  Ewald energy   TEWEN  =     84071.76900683
  -Hartree energ DENC   =   -105035.94506015
  -exchange      EXHF   =         0.00000000
  -V(xc)+E(xc)   XCENC  =       783.02151472
  PAW double counting   =     19356.41094894   -18675.89497373
  entropy T*S    EENTRO =        -0.18977738
  eigenvalues    EBANDS =     -4782.98451841
  atomic energy  EATOM  =     23472.75423047
  Solvation  Ediel_sol  =         0.00000000
  ---------------------------------------------------
  free energy    TOTEN  =      -539.27187981 eV

  energy without entropy =     -539.08210243  energy(sigma->0) =     -539.17699112


--------------------------------------------------------------------------------------------------------




--------------------------------------- Iteration      1(   5)  ---------------------------------------


     EDDAV:  cpu time     35.6409: real time      5.1112
       DOS:  cpu time      0.0382: real time      0.0060
    CHARGE:  cpu time      1.9649: real time      0.2809
    MIXING:  cpu time      0.5186: real time      0.0742
    --------------------------------------------
      LOOP:  cpu time     38.1631: real time      5.4724

 eigenvalue-minimisations  :  4120
 total energy-change (2. order) :-0.5232387E+00  (-0.5223545E+00)
 number of electron     375.9999835 magnetization 
 augmentation part       36.8744014 magnetization 

 Broyden mixing:
  rms(total) = 0.49972E+01    rms(broyden)= 0.49953E+01
  rms(prec ) = 0.55654E+01
  weight for this iteration     100.00

 Free energy of the ion-electron system (eV)
  ---------------------------------------------------
  alpha Z        PSCENC =       271.78674889
  Ewald energy   TEWEN  =     84071.76900683
  -Hartree energ DENC   =   -105035.94506015
  -exchange      EXHF   =         0.00000000
  -V(xc)+E(xc)   XCENC  =       783.02151472
  PAW double counting   =     19356.41094894   -18675.89497373
  entropy T*S    EENTRO =        -0.18976060
  eigenvalues    EBANDS =     -4783.50777385
  atomic energy  EATOM  =     23472.75423047
  Solvation  Ediel_sol  =         0.00000000
  ---------------------------------------------------
  free energy    TOTEN  =      -539.79511847 eV

  energy without entropy =     -539.60535788  energy(sigma->0) =     -539.70023817


--------------------------------------------------------------------------------------------------------




--------------------------------------- Iteration      1(   6)  ---------------------------------------


    POTLOK:  cpu time      8.3595: real time      1.3989
    SETDIJ:  cpu time      0.4784: real time      0.0694
    EDDIAG:  cpu time      2.1534: real time      0.3087
  RMM-DIIS:  cpu time      4.0841: real time      1.6259
    ORTHCH:  cpu time      0.1147: real time      0.0599
       DOS:  cpu time      0.0035: real time      0.0018
    CHARGE:  cpu time      1.0727: real time      0.2490
    MIXING:  cpu time      0.5258: real time      0.0757
    --------------------------------------------
      LOOP:  cpu time     16.7922: real time      3.7893

 eigenvalue-minimisations  :  3164
 total energy-change (2. order) : 0.3649127E+02  (-0.2887679E+02)
 number of electron     375.9999865 magnetization 
 augmentation part       33.1601078 magnetization 

 Broyden mixing:
  rms(total) = 0.37443E+01    rms(broyden)= 0.37407E+01
  rms(prec ) = 0.40736E+01
  weight for this iteration     100.00

 eigenvalues of (default mixing * dielectric matrix)
  average eigenvalue GAMMA=   0.6077
  0.6077

 Free energy of the ion-electron system (eV)
  ---------------------------------------------------
  alpha Z        PSCENC =       271.78674889
  Ewald energy   TEWEN  =     84071.76900683
  -Hartree energ DENC   =   -105615.14837910
  -exchange      EXHF   =         0.00000000
  -V(xc)+E(xc)   XCENC  =       824.11683142
  PAW double counting   =     23379.92904171   -22710.76463535
  entropy T*S    EENTRO =        -0.12320992
  eigenvalues    EBANDS =     -4197.62348328
  atomic energy  EATOM  =     23472.75423047
  Solvation  Ediel_sol  =         0.00000000
  ---------------------------------------------------
  free energy    TOTEN  =      -503.30384832 eV

  energy without entropy =     -503.18063840  energy(sigma->0) =     -503.24224336


--------------------------------------------------------------------------------------------------------




--------------------------------------- Iteration      1(   7)  ---------------------------------------


    POTLOK:  cpu time      8.4711: real time      1.4289
    SETDIJ:  cpu time      0.4740: real time      0.0685
    EDDIAG:  cpu time      2.1530: real time      0.3115
  RMM-DIIS:  cpu time      4.2603: real time      1.7285
    ORTHCH:  cpu time      0.1142: real time      0.0594
       DOS:  cpu time      0.0038: real time      0.0019
    CHARGE:  cpu time      1.0814: real time      0.2516
    MIXING:  cpu time      0.5318: real time      0.0770
    --------------------------------------------
      LOOP:  cpu time     17.0896: real time      3.9273

 eigenvalue-minimisations  :  3167
 total energy-change (2. order) : 0.2170091E+02  (-0.4212553E+01)
 number of electron     375.9999868 magnetization 
 augmentation part       32.6969153 magnetization 

 Broyden mixing:
  rms(total) = 0.20274E+01    rms(broyden)= 0.20238E+01
  rms(prec ) = 0.21733E+01
  weight for this iteration     100.00

 eigenvalues of (default mixing * dielectric matrix)
  average eigenvalue GAMMA=   0.6555
  0.6555  0.6555

 Free energy of the ion-electron system (eV)
  ---------------------------------------------------
  alpha Z        PSCENC =       271.78674889
  Ewald energy   TEWEN  =     84071.76900683
  -Hartree energ DENC   =   -105700.29911665
  -exchange      EXHF   =         0.00000000
  -V(xc)+E(xc)   XCENC  =       828.65489160
  PAW double counting   =     24953.68776636   -24285.61501284
  entropy T*S    EENTRO =        -0.23715013
  eigenvalues    EBANDS =     -4094.10430391
  atomic energy  EATOM  =     23472.75423047
  Solvation  Ediel_sol  =         0.00000000
  ---------------------------------------------------
  free energy    TOTEN  =      -481.60293937 eV

  energy without entropy =     -481.36578924  energy(sigma->0) =     -481.48436431


--------------------------------------------------------------------------------------------------------




--------------------------------------- Iteration      1(   8)  ---------------------------------------


    POTLOK:  cpu time      8.4208: real time      1.4078
    SETDIJ:  cpu time      0.8561: real time      0.1226
    EDDIAG:  cpu time      2.0085: real time      0.3061
  RMM-DIIS:  cpu time      4.2523: real time      1.7198
    ORTHCH:  cpu time      0.1137: real time      0.0590
       DOS:  cpu time      0.0038: real time      0.0019
    CHARGE:  cpu time      1.0645: real time      0.2478
    MIXING:  cpu time      0.5104: real time      0.0729
    --------------------------------------------
      LOOP:  cpu time     17.2488: real time      3.9409

 eigenvalue-minimisations  :  3167
 total energy-change (2. order) :-0.6464291E+00  (-0.1370289E+01)
 number of electron     375.9999862 magnetization 
 augmentation part       32.4191183 magnetization 

 Broyden mixing:
  rms(total) = 0.18544E+01    rms(broyden)= 0.18530E+01
  rms(prec ) = 0.21201E+01
  weight for this iteration     100.00

 eigenvalues of (default mixing * dielectric matrix)
  average eigenvalue GAMMA=   0.6368
  0.7743  0.7743  0.3619

 Free energy of the ion-electron system (eV)
  ---------------------------------------------------
  alpha Z        PSCENC =       271.78674889
  Ewald energy   TEWEN  =     84071.76900683
  -Hartree energ DENC   =   -105730.42105010
  -exchange      EXHF   =         0.00000000
  -V(xc)+E(xc)   XCENC  =       830.77917435
  PAW double counting   =     26184.78432258   -25516.74402071
  entropy T*S    EENTRO =        -0.18022849
  eigenvalues    EBANDS =     -4066.77755231
  atomic energy  EATOM  =     23472.75423047
  Solvation  Ediel_sol  =         0.00000000
  ---------------------------------------------------
  free energy    TOTEN  =      -482.24936848 eV

  energy without entropy =     -482.06913999  energy(sigma->0) =     -482.15925424


--------------------------------------------------------------------------------------------------------




--------------------------------------- Iteration      1(   9)  ---------------------------------------


    POTLOK:  cpu time      8.3867: real time      1.4038
    SETDIJ:  cpu time      0.4754: real time      0.0687
    EDDIAG:  cpu time      2.1384: real time      0.3061
  RMM-DIIS:  cpu time      4.2474: real time      1.7265
    ORTHCH:  cpu time      0.1132: real time      0.0583
       DOS:  cpu time      0.0038: real time      0.0019
    CHARGE:  cpu time      1.0678: real time      0.2493
    MIXING:  cpu time      0.5194: real time      0.0743
    --------------------------------------------
      LOOP:  cpu time     16.9334: real time      3.8857

 eigenvalue-minimisations  :  3167
 total energy-change (2. order) :-0.4382394E+00  (-0.4901230E+00)
 number of electron     375.9999872 magnetization 
 augmentation part       32.3042824 magnetization 

 Broyden mixing:
  rms(total) = 0.15233E+01    rms(broyden)= 0.15218E+01
  rms(prec ) = 0.17883E+01
  weight for this iteration     100.00

 eigenvalues of (default mixing * dielectric matrix)
  average eigenvalue GAMMA=   0.6181
  0.8715  0.8715  0.4694  0.2599

 Free energy of the ion-electron system (eV)
  ---------------------------------------------------
  alpha Z        PSCENC =       271.78674889
  Ewald energy   TEWEN  =     84071.76900683
  -Hartree energ DENC   =   -105743.30807228
  -exchange      EXHF   =         0.00000000
  -V(xc)+E(xc)   XCENC  =       831.61520276
  PAW double counting   =     26971.94644386   -26303.72940788
  entropy T*S    EENTRO =        -0.11731761
  eigenvalues    EBANDS =     -4055.40444297
  atomic energy  EATOM  =     23472.75423047
  Solvation  Ediel_sol  =         0.00000000
  ---------------------------------------------------
  free energy    TOTEN  =      -482.68760793 eV

  energy without entropy =     -482.57029032  energy(sigma->0) =     -482.62894913


--------------------------------------------------------------------------------------------------------




--------------------------------------- Iteration      1(  10)  ---------------------------------------


    POTLOK:  cpu time      8.4331: real time      1.4107
    SETDIJ:  cpu time      0.5017: real time      0.0720
    EDDIAG:  cpu time      2.1431: real time      0.3069
  RMM-DIIS:  cpu time      4.1959: real time      1.7387
    ORTHCH:  cpu time      0.1130: real time      0.0582
       DOS:  cpu time      0.0037: real time      0.0019
    CHARGE:  cpu time      1.1066: real time      0.2543
    MIXING:  cpu time      0.6150: real time      0.0879
    --------------------------------------------
      LOOP:  cpu time     17.1120: real time      3.9304

 eigenvalue-minimisations  :  3199
 total energy-change (2. order) : 0.1202950E+01  (-0.2962710E+00)
 number of electron     375.9999862 magnetization 
 augmentation part       32.2549026 magnetization 

 Broyden mixing:
  rms(total) = 0.18612E+01    rms(broyden)= 0.18580E+01
  rms(prec ) = 0.22238E+01
  weight for this iteration     100.00

 eigenvalues of (default mixing * dielectric matrix)
  average eigenvalue GAMMA=   0.5569
  0.9829  0.6166  0.6166  0.3735  0.1952

 Free energy of the ion-electron system (eV)
  ---------------------------------------------------
  alpha Z        PSCENC =       271.78674889
  Ewald energy   TEWEN  =     84071.76900683
  -Hartree energ DENC   =   -105756.69533249
  -exchange      EXHF   =         0.00000000
  -V(xc)+E(xc)   XCENC  =       832.14685828
  PAW double counting   =     27668.36634178   -26999.91893254
  entropy T*S    EENTRO =        -0.15191907
  eigenvalues    EBANDS =     -4041.54165960
  atomic energy  EATOM  =     23472.75423047
  Solvation  Ediel_sol  =         0.00000000
  ---------------------------------------------------
  free energy    TOTEN  =      -481.48465745 eV

  energy without entropy =     -481.33273838  energy(sigma->0) =     -481.40869791


--------------------------------------------------------------------------------------------------------




--------------------------------------- Iteration      1(  11)  ---------------------------------------


    POTLOK:  cpu time      8.4027: real time      1.4060
    SETDIJ:  cpu time      0.5054: real time      0.0725
    EDDIAG:  cpu time      2.1317: real time      0.3057
  RMM-DIIS:  cpu time      4.2935: real time      1.7723
    ORTHCH:  cpu time      0.1110: real time      0.0569
       DOS:  cpu time      0.0038: real time      0.0019
    CHARGE:  cpu time      1.0722: real time      0.2499
    MIXING:  cpu time      0.5403: real time      0.0775
    --------------------------------------------
      LOOP:  cpu time     17.0608: real time      3.9427

 eigenvalue-minimisations  :  3255
 total energy-change (2. order) : 0.1663852E+01  (-0.2195238E+00)
 number of electron     375.9999871 magnetization 
 augmentation part       32.2391338 magnetization 

 Broyden mixing:
  rms(total) = 0.13588E+01    rms(broyden)= 0.13552E+01
  rms(prec ) = 0.16320E+01
  weight for this iteration     100.00

 eigenvalues of (default mixing * dielectric matrix)
  average eigenvalue GAMMA=   0.5741
  0.8560  0.7184  0.7184  0.6597  0.3574  0.1349

 Free energy of the ion-electron system (eV)
  ---------------------------------------------------
  alpha Z        PSCENC =       271.78674889
  Ewald energy   TEWEN  =     84071.76900683
  -Hartree energ DENC   =   -105763.80755108
  -exchange      EXHF   =         0.00000000
  -V(xc)+E(xc)   XCENC  =       832.61122214
  PAW double counting   =     28008.18329279   -27339.64183021
  entropy T*S    EENTRO =        -0.15591321
  eigenvalues    EBANDS =     -4033.32001208
  atomic energy  EATOM  =     23472.75423047
  Solvation  Ediel_sol  =         0.00000000
  ---------------------------------------------------
  free energy    TOTEN  =      -479.82080546 eV

  energy without entropy =     -479.66489225  energy(sigma->0) =     -479.74284885


--------------------------------------------------------------------------------------------------------




--------------------------------------- Iteration      1(  12)  ---------------------------------------


    POTLOK:  cpu time      8.4510: real time      1.4183
    SETDIJ:  cpu time      0.4525: real time      0.0647
    EDDIAG:  cpu time      2.1387: real time      0.3063
  RMM-DIIS:  cpu time      4.5922: real time      1.8838
    ORTHCH:  cpu time      0.1123: real time      0.0575
       DOS:  cpu time      0.0037: real time      0.0019
    CHARGE:  cpu time      1.0718: real time      0.2492
    MIXING:  cpu time      0.5564: real time      0.0795
    --------------------------------------------
      LOOP:  cpu time     17.3786: real time      4.0612

 eigenvalue-minimisations  :  3488
 total energy-change (2. order) :-0.1759732E+01  (-0.2617767E+00)
 number of electron     375.9999870 magnetization 
 augmentation part       32.3064613 magnetization 

 Broyden mixing:
  rms(total) = 0.20024E+01    rms(broyden)= 0.20006E+01
  rms(prec ) = 0.22699E+01
  weight for this iteration     100.00

 eigenvalues of (default mixing * dielectric matrix)
  average eigenvalue GAMMA=   0.6424
  1.4766  1.2472  0.5646  0.5646  0.3401  0.1870  0.1170

 Free energy of the ion-electron system (eV)
  ---------------------------------------------------
  alpha Z        PSCENC =       271.78674889
  Ewald energy   TEWEN  =     84071.76900683
  -Hartree energ DENC   =   -105772.49761513
  -exchange      EXHF   =         0.00000000
  -V(xc)+E(xc)   XCENC  =       832.87673944
  PAW double counting   =     28379.83868367   -27711.06419868
  entropy T*S    EENTRO =        -0.20922152
  eigenvalues    EBANDS =     -4026.83491167
  atomic energy  EATOM  =     23472.75423047
  Solvation  Ediel_sol  =         0.00000000
  ---------------------------------------------------
  free energy    TOTEN  =      -481.58053770 eV

  energy without entropy =     -481.37131618  energy(sigma->0) =     -481.47592694


--------------------------------------------------------------------------------------------------------




--------------------------------------- Iteration      1(  13)  ---------------------------------------


    POTLOK:  cpu time      8.4641: real time      1.4139
    SETDIJ:  cpu time      0.4496: real time      0.0644
    EDDIAG:  cpu time      2.1427: real time      0.3066
  RMM-DIIS:  cpu time      4.5399: real time      1.8599
    ORTHCH:  cpu time      0.1113: real time      0.0563
       DOS:  cpu time      0.0047: real time      0.0023
    CHARGE:  cpu time      1.0719: real time      0.2491
    MIXING:  cpu time      0.5736: real time      0.0821
    --------------------------------------------
      LOOP:  cpu time     17.3577: real time      4.0346

 eigenvalue-minimisations  :  3416
 total energy-change (2. order) :-0.4390393E+00  (-0.1805680E+00)
 number of electron     375.9999866 magnetization 
 augmentation part       32.4710735 magnetization 

 Broyden mixing:
  rms(total) = 0.26259E+01    rms(broyden)= 0.26243E+01
  rms(prec ) = 0.31829E+01
  weight for this iteration     100.00

 eigenvalues of (default mixing * dielectric matrix)
  average eigenvalue GAMMA=   0.5798
  1.6479  1.1900  0.5206  0.4257  0.4257  0.2149  0.1069  0.1069

 Free energy of the ion-electron system (eV)
  ---------------------------------------------------
  alpha Z        PSCENC =       271.78674889
  Ewald energy   TEWEN  =     84071.76900683
  -Hartree energ DENC   =   -105787.60082160
  -exchange      EXHF   =         0.00000000
  -V(xc)+E(xc)   XCENC  =       833.35422483
  PAW double counting   =     28948.28127769   -28279.15480513
  entropy T*S    EENTRO =        -0.20007512
  eigenvalues    EBANDS =     -4013.00936389
  atomic energy  EATOM  =     23472.75423047
  Solvation  Ediel_sol  =         0.00000000
  ---------------------------------------------------
  free energy    TOTEN  =      -482.01957703 eV

  energy without entropy =     -481.81950191  energy(sigma->0) =     -481.91953947


--------------------------------------------------------------------------------------------------------




--------------------------------------- Iteration      1(  14)  ---------------------------------------


    POTLOK:  cpu time      8.4392: real time      1.4101
    SETDIJ:  cpu time      0.4505: real time      0.0644
    EDDIAG:  cpu time      2.1350: real time      0.3057
[...]
    FORCOR:  cpu time      8.0562: real time      1.2764
    FORHAR:  cpu time      0.7146: real time      0.3835
    MIXING:  cpu time      1.6937: real time      0.3064
    OFIELD:  cpu time      0.0012: real time      0.0002

  FORCE on cell =-STRESS in cart. coord.  units (eV):
  Direction    XX          YY          ZZ          XY          YZ          ZX
  --------------------------------------------------------------------------------------
  Alpha Z   271.78675   271.78675   271.78675
  Ewald   95781.06651 96136.88640************   221.89767   199.80328  -208.10094
  Hartree101134.46274101417.07508-96524.34520    94.68469   118.42397   -65.16744
  E(xc)   -1745.97265 -1744.99154 -1745.82180     0.26520     0.55138    -0.17092
  Local  ************************199217.41345  -299.82824  -301.97596   245.46263
  n-local  -841.51264  -844.94625  -893.73641     3.34244    -0.08675    -7.26658
  augment   319.59174   316.11629   334.15970    -1.58210    -1.24340     3.51498
  Kinetic  6994.07286  6956.91663  7184.22576   -19.87676   -12.26227    31.09201
  Fock        0.00000     0.00000     0.00000     0.00000     0.00000     0.00000
  -------------------------------------------------------------------------------------
  Total      -3.89566    -5.64331    -2.60129    -1.09711     3.21025    -0.63627
  in kB      -3.61586    -5.23797    -2.41445    -1.01831     2.97967    -0.59057
  external pressure =       -3.76 kB  Pullay stress =        0.00 kB


 VOLUME and BASIS-vectors are now :
 -----------------------------------------------------------------------------
  energy-cutoff  :      530.00
  volume of cell :     1726.16
      direct lattice vectors                 reciprocal lattice vectors
     9.614902000  0.000000000  0.000000000     0.104005220  0.000000000  0.000000000
     0.000000000  8.326749000  0.000000000     0.000000000  0.120094889  0.000000000
     0.000000000  0.000000000 21.560589000     0.000000000  0.000000000  0.046380922

  length of vectors
     9.614902000  8.326749000 21.560589000     0.104005220  0.120094889  0.046380922


 FORCES acting on ions
    electron-ion (+dipol)            ewald-force                    non-local-force                 convergence-correction
 -----------------------------------------------------------------------------------------------
   -.938E+01 -.377E+02 0.118E+04   0.196E+02 0.450E+02 -.120E+04   -.102E+02 -.796E+01 0.214E+02   -.193E-02 0.120E-03 -.158E-02
   -.100E+02 -.366E+02 0.118E+04   0.202E+02 0.441E+02 -.120E+04   -.102E+02 -.805E+01 0.214E+02   -.108E-02 0.117E-04 -.237E-02
   0.352E+02 0.141E+01 0.443E+03   -.361E+02 -.140E+01 -.444E+03   0.951E+00 0.245E+00 0.252E+01   -.284E-02 -.363E-03 0.102E-02
   0.343E+02 -.368E+01 0.446E+03   -.349E+02 0.352E+01 -.447E+03   0.440E+00 0.461E+00 0.258E+01   -.113E-02 0.827E-03 -.267E-03
   -.264E+02 0.274E+02 0.118E+04   0.277E+02 -.400E+02 -.120E+04   -.187E+01 0.128E+02 0.215E+02   -.331E-02 -.555E-03 -.159E-02
   -.270E+02 0.270E+02 0.118E+04   0.284E+02 -.396E+02 -.120E+04   -.182E+01 0.128E+02 0.214E+02   -.114E-02 0.947E-03 -.246E-02
   0.379E+02 0.101E+02 0.118E+04   -.494E+02 -.503E+01 -.120E+04   0.120E+02 -.482E+01 0.214E+02   -.252E-02 0.401E-03 -.180E-02
   0.371E+02 0.966E+01 0.118E+04   -.487E+02 -.455E+01 -.120E+04   0.121E+02 -.484E+01 0.215E+02   -.797E-03 -.134E-02 -.186E-02
   -.154E+02 -.295E+02 0.441E+03   0.156E+02 0.305E+02 -.443E+03   0.117E+00 -.112E+01 0.319E+01   -.240E-02 0.266E-03 0.478E-03
   -.155E+02 -.262E+02 0.448E+03   0.159E+02 0.270E+02 -.450E+03   -.416E-01 -.874E+00 0.251E+01   -.190E-02 -.117E-03 0.107E-02
   -.133E+02 0.277E+02 0.446E+03   0.136E+02 -.286E+02 -.448E+03   -.512E+00 0.843E+00 0.270E+01   -.272E-02 0.489E-04 0.910E-03
   -.132E+02 0.302E+02 0.444E+03   0.137E+02 -.308E+02 -.446E+03   -.836E+00 0.345E+00 0.288E+01   -.170E-02 -.783E-03 0.166E-02
   0.289E+02 -.196E+02 -.354E+03   -.287E+02 0.221E+02 0.352E+03   -.622E+00 -.346E+01 0.216E+01   -.496E-02 0.336E-02 0.237E-02
   0.279E+02 -.412E+02 -.314E+03   -.288E+02 0.403E+02 0.314E+03   0.131E+01 0.196E+01 -.159E+01   0.274E-02 -.589E-03 -.374E-02
   -.305E+02 0.136E+03 -.102E+04   0.442E+02 -.157E+03 0.103E+04   -.136E+02 0.208E+02 -.948E+01   -.890E-02 -.131E-01 -.670E-02
   0.245E+02 0.248E+02 -.102E+04   -.213E+02 -.171E+02 0.104E+04   -.316E+01 -.770E+01 -.205E+02   0.704E-03 0.487E-02 0.156E-04
   -.276E+02 0.113E+02 -.329E+03   0.286E+02 -.121E+02 0.329E+03   -.106E+01 0.115E+01 0.354E+00   -.743E-02 -.428E-02 0.469E-03
   -.282E+02 0.812E+01 -.333E+03   0.283E+02 -.640E+01 0.334E+03   0.313E+00 -.296E+01 -.137E+01   0.802E-03 0.229E-02 -.164E-02
   0.453E+01 0.107E+02 -.331E+03   -.542E+01 -.116E+02 0.328E+03   0.150E+01 0.100E+01 0.460E+01   -.361E-02 0.156E-02 -.487E-02
   0.259E+02 0.376E+02 -.326E+03   -.271E+02 -.380E+02 0.325E+03   0.143E+01 0.210E+00 0.526E+00   0.170E-02 -.207E-02 0.222E-03
   0.284E+02 0.172E+02 -.104E+04   -.193E+02 -.227E+02 0.106E+04   -.907E+01 0.552E+01 -.169E+02   -.104E-01 -.134E-02 -.105E-02
   0.223E+03 -.327E+02 -.116E+04   -.269E+03 0.357E+02 0.117E+04   0.457E+02 -.301E+01 -.112E+02   -.130E-01 0.267E-03 -.246E-02
   -.100E+03 -.145E+03 -.118E+04   0.117E+03 0.166E+03 0.121E+04   -.162E+02 -.209E+02 -.246E+02   0.435E-03 0.129E-01 -.147E-02
   0.242E+02 -.787E+01 -.104E+04   -.319E+02 0.646E+01 0.106E+04   0.775E+01 0.141E+01 -.189E+02   0.182E-02 -.613E-02 -.672E-03
   -.107E+02 -.376E+02 0.118E+04   0.209E+02 0.450E+02 -.120E+04   -.102E+02 -.799E+01 0.215E+02   0.161E-02 0.253E-03 -.107E-02
   -.996E+01 -.366E+02 0.118E+04   0.202E+02 0.441E+02 -.120E+04   -.102E+02 -.807E+01 0.214E+02   0.107E-02 -.537E-03 -.654E-03
   0.292E+02 0.136E+01 0.446E+03   -.301E+02 -.130E+01 -.448E+03   0.919E+00 0.199E+00 0.291E+01   0.261E-02 -.178E-03 0.322E-02
   0.320E+02 -.379E+01 0.441E+03   -.326E+02 0.363E+01 -.443E+03   0.511E+00 0.471E+00 0.274E+01   0.114E-02 0.699E-04 0.251E-02
   -.279E+02 0.274E+02 0.118E+04   0.292E+02 -.400E+02 -.120E+04   -.186E+01 0.128E+02 0.215E+02   0.315E-02 -.121E-02 -.159E-02
   -.271E+02 0.271E+02 0.118E+04   0.285E+02 -.396E+02 -.120E+04   -.183E+01 0.129E+02 0.214E+02   0.713E-03 -.221E-03 -.606E-03
   0.364E+02 0.102E+02 0.118E+04   -.479E+02 -.503E+01 -.120E+04   0.120E+02 -.484E+01 0.214E+02   0.255E-02 0.752E-03 -.135E-02
   0.372E+02 0.955E+01 0.118E+04   -.487E+02 -.444E+01 -.120E+04   0.121E+02 -.484E+01 0.216E+02   0.546E-03 0.103E-02 -.562E-03
   -.201E+02 -.293E+02 0.444E+03   0.202E+02 0.301E+02 -.446E+03   0.322E+00 -.938E+00 0.326E+01   0.195E-02 -.165E-03 0.134E-02
   -.188E+02 -.255E+02 0.443E+03   0.192E+02 0.262E+02 -.444E+03   -.246E+00 -.693E+00 0.233E+01   0.194E-02 0.115E-03 0.326E-02
   -.178E+02 0.275E+02 0.449E+03   0.181E+02 -.284E+02 -.451E+03   -.408E+00 0.689E+00 0.278E+01   0.285E-02 0.523E-03 0.119E-02
   -.165E+02 0.297E+02 0.439E+03   0.173E+02 -.302E+02 -.441E+03   -.106E+01 0.129E+00 0.296E+01   0.209E-02 -.157E-03 0.243E-02
   -.149E+01 -.190E+02 -.355E+03   0.179E+01 0.206E+02 0.353E+03   -.836E+00 -.234E+01 0.382E+01   0.507E-02 0.146E-02 0.347E-02
   0.275E+02 -.352E+02 -.327E+03   -.286E+02 0.343E+02 0.328E+03   0.137E+01 0.201E+01 -.183E+01   -.434E-02 -.374E-02 0.629E-02
   -.889E+02 0.119E+03 -.104E+04   0.105E+03 -.137E+03 0.105E+04   -.157E+02 0.187E+02 -.120E+02   0.137E-01 -.805E-02 -.768E-05
   0.208E+02 -.335E+02 -.110E+04   -.128E+02 0.355E+02 0.112E+04   -.800E+01 -.199E+01 -.221E+02   -.219E-02 0.110E-01 -.767E-03
   -.558E+02 0.757E+01 -.327E+03   0.570E+02 -.751E+01 0.326E+03   -.133E+01 -.168E-01 0.170E+01   0.689E-02 -.125E-02 0.420E-02
   -.292E+02 0.152E+01 -.348E+03   0.299E+02 0.165E+00 0.348E+03   -.485E+00 -.282E+01 -.161E+01   -.189E-02 0.259E-02 0.467E-02
   -.156E+02 0.116E+02 -.331E+03   0.145E+02 -.127E+02 0.328E+03   0.190E+01 0.114E+01 0.422E+01   0.594E-02 -.174E-04 0.493E-03
   0.328E+02 0.390E+02 -.359E+03   -.322E+02 -.395E+02 0.360E+03   -.141E+01 0.488E+00 -.158E+01   -.486E-03 0.602E-03 0.870E-02
   -.137E+03 0.671E+01 -.845E+03   0.163E+03 -.771E+01 0.830E+03   -.251E+02 0.100E+01 0.153E+02   0.834E-02 0.137E-03 0.256E-02
   0.186E+03 -.172E+02 -.112E+04   -.231E+03 0.168E+02 0.113E+04   0.447E+02 0.432E+00 -.873E+01   0.565E-02 -.122E-03 -.134E-03
   -.131E+03 -.145E+03 -.117E+04   0.142E+03 0.170E+03 0.119E+04   -.110E+02 -.242E+02 -.250E+02   0.830E-02 0.648E-02 -.121E-02
   0.164E+02 0.441E+02 -.111E+04   -.192E+02 -.437E+02 0.113E+04   0.277E+01 -.441E+00 -.219E+02   -.377E-02 -.944E-02 -.105E-02
   -.673E+02 0.129E+02 -.158E+04   0.635E+02 -.175E+02 0.162E+04   0.376E+01 0.460E+01 -.354E+02   0.779E-02 0.543E-03 0.302E-04
   0.190E+01 0.189E+01 0.860E+02   -.199E+01 -.222E+01 -.881E+02   -.981E-02 0.851E-01 0.152E+01   -.146E-02 0.236E-04 0.176E-02
   0.211E+01 -.507E+00 0.839E+02   -.180E+01 0.844E+00 -.868E+02   -.486E-01 -.137E+00 0.174E+01   -.959E-03 0.547E-03 -.133E-03
   0.509E+00 0.296E+00 0.356E+03   -.473E+00 -.171E+00 -.358E+03   -.254E-01 -.547E-01 -.362E+00   -.620E-03 0.114E-03 -.109E-03
   0.661E+00 -.343E+00 0.359E+03   -.591E+00 0.298E+00 -.360E+03   -.117E-01 -.514E-02 -.428E+00   -.144E-02 0.340E-03 -.273E-03
   0.333E+00 -.482E+00 0.464E+03   -.320E+00 0.474E+00 -.467E+03   -.126E-01 0.736E-02 0.215E+01   -.125E-03 0.382E-03 0.813E-04
   0.532E+00 0.464E+00 0.465E+03   -.560E+00 -.443E+00 -.468E+03   0.141E-01 -.860E-02 0.209E+01   -.190E-02 -.651E-04 -.250E-04
   0.941E+01 0.190E+02 -.409E+03   -.126E+02 -.214E+02 0.412E+03   0.248E+01 0.162E+01 -.222E+01   -.530E-02 -.354E-02 0.165E-02
   0.983E+01 0.131E+02 -.388E+03   -.579E+01 -.788E+01 0.391E+03   -.252E+01 -.334E+01 -.433E+01   -.442E-03 0.341E-02 -.143E-02
   -.613E+01 0.114E+02 -.311E+03   0.315E+01 -.802E+01 0.314E+03   0.199E+01 -.159E+01 -.182E+01   -.243E-02 0.272E-02 0.331E-02
   -.963E+01 -.274E+02 -.295E+03   0.111E+02 0.217E+02 0.296E+03   -.618E+00 0.338E+01 -.122E+01   -.139E-02 -.894E-03 -.275E-02
   0.258E+01 -.457E+01 -.335E+02   -.359E+01 0.423E+01 0.335E+02   0.629E+00 0.148E+00 -.838E+00   -.207E-02 -.300E-03 0.357E-03
   0.299E+01 0.343E+01 -.332E+02   -.278E+01 -.294E+01 0.335E+02   -.135E+00 -.259E+00 -.607E+00   -.151E-02 -.662E-03 0.830E-03
   -.923E+00 0.117E+01 0.906E+02   0.723E+00 -.119E+01 -.929E+02   0.324E-01 0.449E-01 0.159E+01   0.118E-02 -.388E-03 0.699E-03
   -.207E+01 -.142E+01 0.815E+02   0.240E+01 0.147E+01 -.846E+02   -.117E+00 -.113E-01 0.185E+01   0.147E-02 0.107E-03 0.132E-02
   -.453E+00 0.383E+00 0.358E+03   0.409E+00 -.315E+00 -.359E+03   0.921E-02 -.388E-01 -.379E+00   0.386E-03 -.663E-03 0.956E-03
   -.802E+00 -.328E+00 0.358E+03   0.792E+00 0.196E+00 -.359E+03   0.987E-02 0.403E-01 -.444E+00   0.985E-03 0.323E-03 0.723E-03
   -.243E+00 -.486E+00 0.465E+03   0.222E+00 0.453E+00 -.468E+03   0.108E-02 0.135E-01 0.216E+01   0.600E-03 0.287E-03 -.168E-03
   -.622E+00 0.506E+00 0.464E+03   0.619E+00 -.447E+00 -.467E+03   0.259E-02 -.173E-01 0.212E+01   0.192E-02 -.684E-05 0.224E-03
   -.977E+01 0.687E+01 -.387E+03   0.441E+01 -.563E+01 0.389E+03   0.432E+01 -.434E+00 -.169E+01   0.405E-02 -.224E-02 -.358E-04
   -.950E+01 0.357E+01 -.403E+03   0.130E+02 0.120E+00 0.406E+03   -.239E+01 -.243E+01 -.359E+01   0.341E-02 0.226E-02 0.599E-03
   -.220E+02 0.161E+02 -.298E+03   0.162E+02 -.152E+02 0.298E+03   0.371E+01 -.439E+00 0.291E+00   0.157E-02 0.988E-03 0.638E-03
   -.153E+02 -.213E+02 -.299E+03   0.179E+02 0.163E+02 0.301E+03   -.223E+01 0.344E+01 -.302E+01   0.407E-02 -.267E-02 0.227E-02
   0.534E-01 -.421E+01 -.287E+02   -.124E+01 0.391E+01 0.288E+02   0.691E+00 0.103E+00 -.918E+00   0.115E-02 0.452E-03 -.362E-03
   -.429E+01 0.368E+01 -.379E+02   0.538E+01 -.301E+01 0.382E+02   -.547E+00 -.307E+00 -.779E+00   0.158E-02 0.203E-03 0.242E-02
   0.823E+02 -.163E+01 -.183E+04   -.822E+02 0.145E+01 0.183E+04   -.791E-01 0.193E+00 0.479E+01   -.399E-02 -.302E-02 -.122E-02
 -----------------------------------------------------------------------------------------------
   -.102E+02 0.974E+01 -.863E+02   -.711E-13 -.161E-12 0.364E-11   0.102E+02 -.972E+01 0.863E+02   0.640E-02 -.461E-02 0.204E-01
 
 
 POSITION                                       TOTAL-FORCE (eV/Angst)
 -----------------------------------------------------------------------------------
      1.66776      8.21368      0.00000        -0.035022     -0.596986      0.436794
      4.07149      4.05031      0.00000        -0.035491     -0.605493      0.410714
      0.93180      4.16337      2.18687        -0.014182      0.250115      0.713452
      3.33553      0.00000      2.18687        -0.178863      0.292670      0.723269
      1.47193      2.77558      0.00000        -0.506994      0.310334      0.390351
      3.87565      6.93895      0.00000        -0.499679      0.331495      0.395428
      1.66776      5.66424      0.00000         0.519677      0.283839      0.405974
      4.07149      1.50085      0.00000         0.550768      0.272321      0.413537
      0.73596      1.27472      2.18687         0.338055     -0.177984      0.927315
      3.13969      5.43809      2.18687         0.283016     -0.076464      0.712822
      0.73596      7.05203      2.18687        -0.179090     -0.123377      0.761311
      3.13969      2.88866      2.18687        -0.264961     -0.254895      0.827252
      1.66776      2.66252      4.37374        -0.467284     -0.996560      0.931701
      4.07149      6.82589      4.37374         0.372460      1.035965     -0.689517
      1.07524      6.95377      6.57824         0.004329     -0.000272     -0.004757
      3.57150      2.41159      6.53353         0.001253      0.001272     -0.003246
      1.47192      5.55117      4.37374        -0.020021      0.343635      0.254371
      3.87565      1.38779      4.37374         0.469745     -1.238310     -0.601147
      1.66776      0.11308      4.37374         0.611471      0.041722      1.494271
      4.07149      4.27645      4.37374         0.267679     -0.194904      0.334048
      0.62413      4.02241      6.48136        -0.000204      0.003491     -0.007373
      0.43680      8.17309      6.99381        -0.019793     -0.011326      0.001949
      1.44718      0.80127      7.12546         0.014029      0.013416     -0.001220
      3.29426      6.01067      6.52074        -0.000838     -0.000436     -0.001938
      6.47521      8.21368      0.00000        -0.023809     -0.599690      0.420085
      8.87894      4.05031      0.00000        -0.038719     -0.616609      0.408047
      5.73926      4.16337      2.18687        -0.018209      0.252467      0.826373
      8.14299      0.00000      2.18687        -0.145895      0.306088      0.767011
      6.27938      2.77558      0.00000        -0.500690      0.328519      0.409328
      8.68310      6.93895      0.00000        -0.499425      0.343010      0.426516
      6.47521      5.66423      0.00000         0.517123      0.285692      0.381833
      8.87894      1.50085      0.00000         0.543139      0.270915      0.425128
      5.54341      1.27472      2.18687         0.409492     -0.124827      0.947669
      7.94714      5.43809      2.18687         0.235982      0.000364      0.650640
      5.54341      7.05203      2.18687        -0.126357     -0.153727      0.779489
      7.94714      2.88866      2.18687        -0.328028     -0.341939      0.862354
      6.47521      2.66252      4.37374        -0.530822     -0.646090      1.417220
      8.87894      6.82589      4.37374         0.336155      1.060799     -0.891121
      5.85065      6.97888      6.56253         0.002157      0.006529     -0.001916
      8.52844      2.17388      6.56856        -0.008074      0.004967     -0.002486
      6.27938      5.55117      4.37374        -0.104047      0.042511      0.610507
      8.68310      1.38779      4.37374         0.232019     -1.140281     -0.855972
      6.47521      0.11308      4.37374         0.765785      0.073905      1.326922
      8.87894      4.27644      4.37374        -0.823763     -0.077794     -0.426617
      5.71971      4.07994      6.45382        -0.004775     -0.000768      0.017512
      5.12011      8.18955      6.87424        -0.011156      0.003538     -0.009851
      6.03174      0.91815      7.00560        -0.007289      0.007585     -0.006043
      8.15775      6.22146      6.53093        -0.003564      0.001046     -0.005925
      5.37490      3.96449      7.87242         0.002199      0.001177     -0.014881
      0.00000      5.55117      3.03370        -0.098547     -0.249961     -0.586862
      2.40373      1.38779      3.03370         0.264086      0.199743     -1.124404
      0.00000      2.77558      1.34003         0.010532      0.070416     -1.825388
      2.40373      6.93895      1.34003         0.057250     -0.049755     -1.839756
      0.00000      0.00000      0.84684         0.000411     -0.000406     -0.925331
      2.40373      4.16337      0.84684        -0.015772      0.011990     -0.826496
      0.00000      5.55117      5.71375        -0.726921     -0.730560      0.762889
      2.40373      1.38779      5.71375         1.520131      1.922991     -0.907086
      0.00000      2.77558      5.22055        -0.984008      1.813815      0.985909
      2.40373      6.93895      5.22055         0.841555     -2.322610     -0.212101
      0.00000      0.00000      3.52690        -0.376568     -0.190327     -0.865985
      2.40373      4.16337      3.52690         0.074825      0.227300     -0.304334
      4.80745      5.55117      3.03370        -0.166680      0.016961     -0.750538
      7.21118      1.38779      3.03370         0.215484      0.039213     -1.294216
      4.80745      2.77558      1.34003        -0.033932      0.029198     -1.849439
      7.21118      6.93895      1.34003         0.000192     -0.091104     -1.858553
      4.80745      0.00000      0.84684        -0.019505     -0.018948     -0.884005
      7.21118      4.16337      0.84684         0.001519      0.041588     -0.853286
      4.80745      5.55117      5.71375        -1.034649      0.795689     -0.036818
      7.21118      1.38779      5.71375         1.066316      1.267284     -0.777419
      4.80745      2.77558      5.22055        -2.057333      0.447757      0.604560
      7.21118      6.93895      5.22055         0.331253     -1.597673     -0.558977
      4.80745      0.00000      3.52690        -0.493743     -0.193404     -0.826289
      7.21118      4.16337      3.52690         0.545481      0.366072     -0.535140
      2.51938      4.11575      8.31582        -0.000865      0.004079      0.001880
 -----------------------------------------------------------------------------------
    total drift:                               -0.000047      0.009834      0.028486


--------------------------------------------------------------------------------------------------------



  FREE ENERGIE OF THE ION-ELECTRON SYSTEM (eV)
  ---------------------------------------------------
  free  energy   TOTEN  =      -478.60318870 eV

  energy  without entropy=     -478.33073683  energy(sigma->0) =     -478.46696277
 


--------------------------------------------------------------------------------------------------------


    POTLOK:  cpu time      9.3916: real time      1.5587


--------------------------------------------------------------------------------------------------------


 stress matrix after NEB project (eV)
     -3.89566     -1.09711     -0.63627
     -1.09711     -5.64331      3.21025
     -0.63627      3.21025     -2.60129
  FORCES: max atom, RMS     0.022888    0.005433
  FORCE total and by dimension    0.046736    0.019793
  Stress total and by dimension    8.810119    5.643307


--------------------------------------------------------------------------------------------------------


    WAVPRE:  cpu time      6.3536: real time      1.6112
    FEWALD:  cpu time      0.0391: real time      0.0056
    ORTHCH:  cpu time      1.5710: real time      0.3789
     LOOP+:  cpu time    966.8153: real time    201.6704
