  74  74   0   0
  0.2332648E+02  0.9614902E-09  0.8326749E-09  0.2156059E-08  0.5000000E-15
  1.000000000000000E-004
  CAR 
 ni3al                                   
      8.32522002    -32.34260040  301     -2.91321259      1.00000000
    -32.343  0.0000E+00  0.0000E+00
    -32.207  0.0000E+00  0.0000E+00
    -32.071  0.0000E+00  0.0000E+00
    -31.936  0.0000E+00  0.0000E+00
    -31.800  0.0000E+00  0.0000E+00
    -31.665  0.0000E+00  0.0000E+00
    -31.529  0.0000E+00  0.0000E+00
    -31.394  0.0000E+00  0.0000E+00
    -31.258  0.0000E+00  0.0000E+00
    -31.123  0.0000E+00  0.0000E+00
    -30.987  0.7723E-13  0.1047E-13
    -30.851  0.1063E-07  0.1441E-08
    -30.716  0.4195E-04  0.5688E-05
    -30.580  0.5428E-02  0.7416E-03
    -30.445  0.3176E-01  0.5048E-02
    -30.309  0.1172E-01  0.6637E-02
    -30.174  0.2198E-03  0.6667E-02
    -30.038  0.1441E-06  0.6667E-02
    -29.903  0.2779E-11  0.6667E-02
    -29.767  0.0000E+00  0.6667E-02
    -29.631  0.0000E+00  0.6667E-02
    -29.496  0.0000E+00  0.6667E-02
    -29.360  0.0000E+00  0.6667E-02
    -29.225  0.0000E+00  0.6667E-02
    -29.089  0.0000E+00  0.6667E-02
    -28.954  0.0000E+00  0.6667E-02
    -28.818  0.0000E+00  0.6667E-02
    -28.682  0.0000E+00  0.6667E-02
    -28.547  0.0000E+00  0.6667E-02
    -28.411  0.0000E+00  0.6667E-02
    -28.276  0.0000E+00  0.6667E-02
    -28.140  0.0000E+00  0.6667E-02
    -28.005  0.2345E-11  0.6667E-02
    -27.869  0.1276E-06  0.6667E-02
    -27.734  0.2038E-03  0.6694E-02
    -27.598  0.1135E-01  0.8233E-02
    -27.462  0.3191E-01  0.1256E-01
    -27.327  0.5943E-02  0.1336E-01
    -27.191  0.1319E-01  0.1515E-01
    -27.056  0.4377E-01  0.2109E-01
    -26.920  0.3616E-01  0.2599E-01
    -26.785  0.4979E-02  0.2666E-01
    -26.649  0.3483E-04  0.2667E-01
    -26.514  0.7992E-08  0.2667E-01
    -26.378  0.5248E-13  0.2667E-01
    -26.242  0.0000E+00  0.2667E-01
    -26.107  0.0000E+00  0.2667E-01
    -25.971  0.0000E+00  0.2667E-01
    -25.836  0.0000E+00  0.2667E-01
    -25.700  0.0000E+00  0.2667E-01
    -25.565  0.0000E+00  0.2667E-01
    -25.429  0.0000E+00  0.2667E-01
    -25.294  0.0000E+00  0.2667E-01
    -25.158  0.0000E+00  0.2667E-01
    -25.022  0.0000E+00  0.2667E-01
    -24.887  0.0000E+00  0.2667E-01
    -24.751  0.0000E+00  0.2667E-01
    -24.616  0.0000E+00  0.2667E-01
    -24.480  0.0000E+00  0.2667E-01
    -24.345  0.0000E+00  0.2667E-01
    -24.209  0.0000E+00  0.2667E-01
    -24.073  0.0000E+00  0.2667E-01
    -23.938  0.0000E+00  0.2667E-01
    -23.802  0.0000E+00  0.2667E-01
    -23.667  0.0000E+00  0.2667E-01
    -23.531  0.0000E+00  0.2667E-01
    -23.396  0.0000E+00  0.2667E-01
    -23.260  0.7735E-17  0.2667E-01
    -23.125  0.5733E-11  0.2667E-01
    -22.989  0.1253E-06  0.2667E-01
    -22.853  0.9891E-04  0.2668E-01
    -22.718  0.4597E-02  0.2730E-01
    -22.582  0.2357E-01  0.3050E-01
    -22.447  0.2831E-01  0.3434E-01
    -22.311  0.5203E-01  0.4139E-01
    -22.176  0.6670E-01  0.5043E-01
    -22.040  0.3172E-01  0.5473E-01
    -21.905  0.2941E-01  0.5872E-01
    -21.769  0.3633E-01  0.6364E-01
    -21.633  0.2723E-01  0.6733E-01
    -21.498  0.4660E-01  0.7365E-01
    -21.362  0.7652E-01  0.8402E-01
    -21.227  0.7353E-01  0.9399E-01
    -21.091  0.7033E-01  0.1035E+00
    -20.956  0.6012E-01  0.1117E+00
    -20.820  0.7506E-01  0.1218E+00
    -20.684  0.7833E-01  0.1325E+00
    -20.549  0.8430E-01  0.1439E+00
    -20.413  0.9144E-01  0.1563E+00
    -20.278  0.9722E-01  0.1695E+00
    -20.142  0.1457E+00  0.1892E+00
    -20.007  0.1095E+00  0.2041E+00
    -19.871  0.1890E-01  0.2066E+00
    -19.736  0.1166E-02  0.2068E+00
    -19.600  0.1454E-01  0.2088E+00
    -19.464  0.3851E-01  0.2140E+00
    -19.329  0.5948E-01  0.2220E+00
    -19.193  0.9431E-01  0.2348E+00
    -19.058  0.3805E-01  0.2400E+00
    -18.922  0.4185E-01  0.2457E+00
    -18.787  0.1447E+00  0.2653E+00
    -18.651  0.2137E+00  0.2942E+00
    -18.516  0.1635E+00  0.3164E+00
    -18.380  0.2622E-01  0.3199E+00
    -18.244  0.4173E-03  0.3200E+00
    -18.109  0.3496E-06  0.3200E+00
    -17.973  0.1077E-10  0.3200E+00
    -17.838  0.3132E-09  0.3200E+00
    -17.702  0.3964E-05  0.3200E+00
    -17.567  0.1626E-02  0.3202E+00
    -17.431  0.3173E-01  0.3245E+00
    -17.296  0.5484E-01  0.3320E+00
    -17.160  0.1004E-01  0.3333E+00
    -17.024  0.1194E-03  0.3333E+00
    -16.889  0.5303E-07  0.3333E+00
    -16.753  0.6993E-12  0.3333E+00
    -16.618  0.0000E+00  0.3333E+00
    -16.482  0.0000E+00  0.3333E+00
    -16.347  0.0000E+00  0.3333E+00
    -16.211  0.0000E+00  0.3333E+00
    -16.075  0.0000E+00  0.3333E+00
    -15.940  0.0000E+00  0.3333E+00
    -15.804  0.0000E+00  0.3333E+00
    -15.669  0.0000E+00  0.3333E+00
    -15.533  0.0000E+00  0.3333E+00
    -15.398  0.0000E+00  0.3333E+00
    -15.262  0.0000E+00  0.3333E+00
    -15.127  0.0000E+00  0.3333E+00
    -14.991  0.0000E+00  0.3333E+00
    -14.855  0.0000E+00  0.3333E+00
    -14.720  0.0000E+00  0.3333E+00
    -14.584  0.2730E-17  0.3333E+00
    -14.449  0.3975E-11  0.3333E+00
    -14.313  0.2304E-06  0.3333E+00
    -14.178  0.4174E-03  0.3334E+00
    -14.042  0.2789E-01  0.3372E+00
    -13.907  0.9675E-01  0.3503E+00
    -13.771  0.2223E-01  0.3533E+00
    -13.635  0.2530E-03  0.3533E+00
    -13.500  0.1011E-06  0.3533E+00
    -13.364  0.1210E-11  0.3533E+00
    -13.229  0.0000E+00  0.3533E+00
    -13.093  0.0000E+00  0.3533E+00
    -12.958  0.0000E+00  0.3533E+00
    -12.822  0.0000E+00  0.3533E+00
    -12.686  0.0000E+00  0.3533E+00
    -12.551  0.0000E+00  0.3533E+00
    -12.415  0.0000E+00  0.3533E+00
    -12.280  0.0000E+00  0.3533E+00
    -12.144  0.0000E+00  0.3533E+00
    -12.009  0.0000E+00  0.3533E+00
    -11.873  0.1544E-12  0.3533E+00
    -11.738  0.1767E-07  0.3533E+00
    -11.602  0.5999E-04  0.3533E+00
    -11.466  0.7466E-02  0.3544E+00
    -11.331  0.5413E-01  0.3617E+00
    -11.195  0.3491E-01  0.3664E+00
    -11.060  0.1792E-02  0.3667E+00
    -10.924  0.1039E-04  0.3667E+00
    -10.789  0.1889E-02  0.3669E+00
    -10.653  0.2532E-01  0.3704E+00
    -10.518  0.2094E-01  0.3732E+00
    -10.382  0.1022E-02  0.3733E+00
    -10.246  0.8948E-03  0.3735E+00
    -10.111  0.2290E-01  0.3766E+00
     -9.975  0.8100E-01  0.3875E+00
     -9.840  0.1031E+00  0.4015E+00
     -9.704  0.7276E-01  0.4114E+00
     -9.569  0.5933E-01  0.4194E+00
     -9.433  0.5074E-01  0.4263E+00
     -9.298  0.6546E-01  0.4352E+00
     -9.162  0.9939E-01  0.4487E+00
     -9.026  0.1009E+00  0.4623E+00
     -8.891  0.1193E+00  0.4785E+00
     -8.755  0.1030E+00  0.4925E+00
     -8.620  0.7565E-01  0.5027E+00
     -8.484  0.4911E-01  0.5094E+00
     -8.349  0.5915E-01  0.5174E+00
     -8.213  0.6732E-01  0.5265E+00
     -8.077  0.7256E-01  0.5364E+00
     -7.942  0.9210E-01  0.5489E+00
     -7.806  0.9838E-01  0.5622E+00
     -7.671  0.6646E-01  0.5712E+00
     -7.535  0.4197E-01  0.5769E+00
     -7.400  0.6075E-01  0.5851E+00
     -7.264  0.7796E-01  0.5957E+00
     -7.129  0.1000E+00  0.6092E+00
     -6.993  0.1055E+00  0.6236E+00
     -6.857  0.1068E+00  0.6380E+00
     -6.722  0.1249E+00  0.6550E+00
     -6.586  0.1493E+00  0.6752E+00
     -6.451  0.1481E+00  0.6953E+00
     -6.315  0.1342E+00  0.7135E+00
     -6.180  0.1466E+00  0.7333E+00
     -6.044  0.1506E+00  0.7538E+00
     -5.909  0.1466E+00  0.7736E+00
     -5.773  0.1264E+00  0.7908E+00
     -5.637  0.1125E+00  0.8060E+00
     -5.502  0.1359E+00  0.8244E+00
     -5.366  0.1316E+00  0.8423E+00
     -5.231  0.1445E+00  0.8619E+00
     -5.095  0.1514E+00  0.8824E+00
     -4.960  0.1646E+00  0.9047E+00
     -4.824  0.1677E+00  0.9274E+00
     -4.688  0.1944E+00  0.9538E+00
     -4.553  0.1631E+00  0.9759E+00
     -4.417  0.1347E+00  0.9941E+00
     -4.282  0.1435E+00  0.1014E+01
     -4.146  0.1598E+00  0.1035E+01
     -4.011  0.1296E+00  0.1053E+01
     -3.875  0.7441E-01  0.1063E+01
     -3.740  0.1001E+00  0.1076E+01
     -3.604  0.1772E+00  0.1101E+01
     -3.468  0.2001E+00  0.1128E+01
     -3.333  0.2288E+00  0.1159E+01
     -3.197  0.2513E+00  0.1193E+01
     -3.062  0.2264E+00  0.1223E+01
     -2.926  0.2029E+00  0.1251E+01
     -2.791  0.1417E+00  0.1270E+01
     -2.655  0.1167E+00  0.1286E+01
     -2.520  0.7666E-01  0.1296E+01
     -2.384  0.2508E-01  0.1300E+01
     -2.248  0.1896E-02  0.1300E+01
     -2.113  0.1011E-04  0.1300E+01
     -1.977  0.2205E-08  0.1300E+01
     -1.842  0.1533E-13  0.1300E+01
     -1.706  0.0000E+00  0.1300E+01
     -1.571  0.0000E+00  0.1300E+01
     -1.435  0.0000E+00  0.1300E+01
     -1.299  0.0000E+00  0.1300E+01
     -1.164  0.0000E+00  0.1300E+01
     -1.028  0.5890E-13  0.1300E+01
     -0.893  0.8634E-08  0.1300E+01
     -0.757  0.3644E-04  0.1300E+01
     -0.622  0.5048E-02  0.1301E+01
     -0.486  0.3146E-01  0.1305E+01
     -0.351  0.1238E-01  0.1307E+01
     -0.215  0.2509E-03  0.1307E+01
     -0.079  0.1799E-06  0.1307E+01
      0.056  0.4685E-11  0.1307E+01
      0.192  0.4290E-07  0.1307E+01
      0.327  0.7137E-04  0.1307E+01
      0.463  0.5365E-02  0.1307E+01
      0.598  0.2853E-01  0.1311E+01
      0.734  0.1614E-01  0.1313E+01
      0.869  0.2422E-01  0.1317E+01
      1.005  0.2264E-01  0.1320E+01
      1.141  0.1603E-02  0.1320E+01
      1.276  0.3078E-02  0.1320E+01
      1.412  0.1443E-01  0.1322E+01
      1.547  0.4130E-01  0.1328E+01
      1.683  0.3250E-01  0.1332E+01
      1.818  0.6686E-02  0.1333E+01
      1.954  0.1659E-02  0.1334E+01
      2.089  0.9052E-02  0.1335E+01
      2.225  0.2300E-01  0.1338E+01
      2.361  0.1932E-01  0.1341E+01
      2.496  0.2840E-01  0.1344E+01
      2.632  0.1684E-01  0.1347E+01
      2.767  0.1738E-01  0.1349E+01
      2.903  0.3761E-01  0.1354E+01
      3.038  0.3531E-01  0.1359E+01
      3.174  0.8626E-02  0.1360E+01
      3.310  0.7857E-02  0.1361E+01
      3.445  0.2249E-01  0.1364E+01
      3.581  0.1557E-01  0.1366E+01
      3.716  0.4871E-02  0.1367E+01
      3.852  0.6168E-02  0.1368E+01
      3.987  0.1148E-01  0.1369E+01
      4.123  0.1730E-01  0.1372E+01
      4.258  0.1848E-01  0.1374E+01
      4.394  0.2329E-01  0.1377E+01
      4.530  0.2444E-01  0.1381E+01
      4.665  0.3367E-01  0.1385E+01
      4.801  0.2918E-01  0.1389E+01
      4.936  0.3400E-01  0.1394E+01
      5.072  0.3721E-01  0.1399E+01
      5.207  0.5004E-01  0.1406E+01
      5.343  0.6506E-01  0.1414E+01
      5.478  0.6688E-01  0.1423E+01
      5.614  0.5955E-01  0.1432E+01
      5.750  0.7772E-01  0.1442E+01
      5.885  0.1148E+00  0.1458E+01
      6.021  0.1125E+00  0.1473E+01
      6.156  0.9386E-01  0.1486E+01
      6.292  0.7610E-01  0.1496E+01
      6.427  0.5237E-01  0.1503E+01
      6.563  0.2480E-01  0.1506E+01
      6.699  0.1964E-02  0.1507E+01
      6.834  0.1051E-04  0.1507E+01
      6.970  0.2224E-08  0.1507E+01
      7.105  0.1466E-13  0.1507E+01
      7.241  0.0000E+00  0.1507E+01
      7.376  0.0000E+00  0.1507E+01
      7.512  0.0000E+00  0.1507E+01
      7.647  0.0000E+00  0.1507E+01
      7.783  0.0000E+00  0.1507E+01
      7.919  0.0000E+00  0.1507E+01
      8.054  0.0000E+00  0.1507E+01
      8.190  0.0000E+00  0.1507E+01
      8.325  0.0000E+00  0.1507E+01
