   74   74  300    1
  0.2332648E+02  0.9614902E-09  0.8326749E-09  0.2156059E-08  0.5000000E-15
  1.000000000000000E-004
  CAR 
 ni3al                                   
    376      7    226
 
  0.0000000E+00  0.0000000E+00  0.0000000E+00  0.8333333E-01
      1        -30.494063   1.000000
      2        -27.547149   1.000000
      3        -27.147536   1.000000
      4        -27.009960   1.000000
      5        -22.704050   1.000000
      6        -22.292450   1.000000
      7        -22.246040   1.000000
      8        -22.174690   1.000000
      9        -21.880973   1.000000
     10        -21.789465   1.000000
     11        -21.605545   1.000000
     12        -21.489122   1.000000
     13        -21.439763   1.000000
     14        -21.270054   1.000000
     15        -21.173295   1.000000
     16        -21.051645   1.000000
     17        -21.040623   1.000000
     18        -20.838755   1.000000
     19        -20.825235   1.000000
     20        -20.715363   1.000000
     21        -20.593761   1.000000
     22        -20.553685   1.000000
     23        -20.468433   1.000000
     24        -20.461744   1.000000
     25        -20.322637   1.000000
     26        -20.299100   1.000000
     27        -20.252481   1.000000
     28        -20.187247   1.000000
     29        -20.159025   1.000000
     30        -20.036990   1.000000
     31        -20.019961   1.000000
     32        -19.642432   1.000000
     33        -19.289685   1.000000
     34        -19.257174   1.000000
     35        -19.240850   1.000000
     36        -19.219480   1.000000
     37        -18.901906   1.000000
     38        -18.874206   1.000000
     39        -18.839363   1.000000
     40        -18.829481   1.000000
     41        -18.802022   1.000000
     42        -18.738064   1.000000
     43        -18.685438   1.000000
     44        -18.672784   1.000000
     45        -18.668791   1.000000
     46        -18.629272   1.000000
     47        -18.537583   1.000000
     48        -18.533964   1.000000
     49        -17.433706   1.000000
     50        -17.355940   1.000000
     51        -13.993903   1.000000
     52        -13.975173   1.000000
     53        -13.970377   1.000000
     54        -11.391826   1.000000
     55        -11.318902   1.000000
     56        -10.667404   1.000000
     57        -10.082257   1.000000
     58        -10.018752   1.000000
     59         -9.967002   1.000000
     60         -9.871195   1.000000
     61         -9.805871   1.000000
     62         -9.637969   1.000000
     63         -9.543403   1.000000
     64         -9.454001   1.000000
     65         -9.319043   1.000000
     66         -9.277799   1.000000
     67         -9.166583   1.000000
     68         -9.066185   1.000000
     69         -9.020138   1.000000
     70         -8.954621   1.000000
     71         -8.896362   1.000000
     72         -8.855377   1.000000
     73         -8.814438   1.000000
     74         -8.762922   1.000000
     75         -8.749238   1.000000
     76         -8.739509   1.000000
     77         -8.520772   1.000000
     78         -8.346370   1.000000
     79         -8.327295   1.000000
     80         -8.266330   1.000000
     81         -8.182816   1.000000
     82         -7.976288   1.000000
     83         -7.946477   1.000000
     84         -7.891048   1.000000
     85         -7.859236   1.000000
     86         -7.796694   1.000000
     87         -7.602953   1.000000
     88         -7.561463   1.000000
     89         -7.483648   1.000000
     90         -7.400493   1.000000
     91         -7.241243   1.000000
     92         -7.224806   1.000000
     93         -7.007604   1.000000
     94         -6.975603   1.000000
     95         -6.960380   1.000000
     96         -6.871525   1.000000
     97         -6.781494   1.000000
     98         -6.766936   1.000000
     99         -6.702755   1.000000
    100         -6.653131   1.000000
    101         -6.563880   1.000000
    102         -6.538564   1.000000
    103         -6.504928   1.000000
    104         -6.463482   1.000000
    105         -6.440226   1.000000
    106         -6.418089   1.000000
    107         -6.304374   1.000000
    108         -6.263140   1.000000
    109         -6.219260   1.000000
    110         -6.182330   1.000000
    111         -6.146129   1.000000
    112         -6.122401   1.000000
    113         -6.102373   1.000000
    114         -6.061468   1.000000
    115         -6.024284   1.000000
    116         -5.955279   1.000000
    117         -5.894935   1.000000
    118         -5.856827   1.000000
    119         -5.820143   1.000000
    120         -5.728310   1.000000
    121         -5.700517   1.000000
    122         -5.674522   1.000000
    123         -5.640704   1.000000
    124         -5.573316   1.000000
    125         -5.471218   1.000000
    126         -5.382775   1.000000
    127         -5.307072   1.000000
    128         -5.271747   1.000000
    129         -5.202908   1.000000
    130         -5.171360   1.000000
    131         -5.121489   1.000000
    132         -5.117238   1.000000
    133         -5.055484   1.000000
    134         -5.011675   1.000000
    135         -4.982370   1.000000
    136         -4.932570   1.000000
    137         -4.872097   1.000000
    138         -4.820044   1.000000
    139         -4.777154   1.000000
    140         -4.744947   1.000000
    141         -4.712346   1.000000
    142         -4.702610   1.000000
    143         -4.686014   1.000000
    144         -4.656677   1.000000
    145         -4.607316   1.000000
    146         -4.578194   1.000000
    147         -4.489896   1.000000
    148         -4.483100   1.000000
    149         -4.430741   1.000000
    150         -4.370886   1.000000
    151         -4.349179   1.000000
    152         -4.279967   1.000000
    153         -4.260196   1.000000
    154         -4.223973   1.000000
    155         -4.215860   1.000000
    156         -4.168181   1.000000
    157         -4.126647   1.000000
    158         -4.064751   1.000000
    159         -3.913857   1.000000
    160         -3.911737   1.000000
    161         -3.877739   1.000000
    162         -3.713135   1.000000
    163         -3.685282   1.000000
    164         -3.665928   1.000000
    165         -3.653256   1.000000
    166         -3.621513   1.000000
    167         -3.567690   1.000000
    168         -3.527050   1.000000
    169         -3.517413   1.000000
    170         -3.468441   1.000000
    171         -3.434741   1.000000
    172         -3.366811   1.000000
    173         -3.349513   1.000000
    174         -3.321174   1.000000
    175         -3.296270   1.000000
    176         -3.287368   1.000000
    177         -3.275567   1.000000
    178         -3.232128   0.999997
    179         -3.210038   0.999987
    180         -3.158527   0.999739
    181         -3.129159   0.998871
    182         -3.126912   0.998745
    183         -3.096593   0.995248
    184         -3.052068   0.975218
    185         -3.004910   0.902649
    186         -2.961384   0.752143
    187         -2.933731   0.614160
    188         -2.917386   0.523532
    189         -2.905033   0.453955
    190         -2.872505   0.282411
    191         -2.723376   0.003630
    192         -2.715359   0.002570
    193         -2.711960   0.002213
    194         -2.469446   0.000000
    195         -2.468600   0.000000
    196         -0.537205   0.000000
    197          0.523669   0.000000
    198          0.871149   0.000000
    199          1.254693   0.000000
    200          1.485699   0.000000
    201          2.235005   0.000000
    202          2.514052   0.000000
    203          2.805071   0.000000
    204          2.975071   0.000000
    205          3.270556   0.000000
    206          3.725029   0.000000
    207          4.788846   0.000000
    208          4.794696   0.000000
    209          4.945683   0.000000
    210          5.031909   0.000000
    211          5.146010   0.000000
    212          5.186313   0.000000
    213          5.234372   0.000000
    214          5.313544   0.000000
    215          5.522694   0.000000
    216          5.568901   0.000000
    217          5.648633   0.000000
    218          5.746874   0.000000
    219          5.798145   0.000000
    220          5.924020   0.000000
    221          5.931613   0.000000
    222          5.990646   0.000000
    223          6.078445   0.000000
    224          6.103672   0.000000
    225          6.235273   0.000000
    226          6.344934   0.000000
 
  0.3333333E+00  0.0000000E+00  0.0000000E+00  0.1666667E+00
      1        -30.494063   1.000000
      2        -27.547174   1.000000
      3        -27.147497   1.000000
      4        -27.010036   1.000000
      5        -22.630908   1.000000
      6        -22.409197   1.000000
      7        -22.273898   1.000000
      8        -22.207269   1.000000
      9        -21.821708   1.000000
     10        -21.714477   1.000000
     11        -21.592034   1.000000
     12        -21.470012   1.000000
     13        -21.425246   1.000000
     14        -21.309071   1.000000
     15        -21.242725   1.000000
     16        -21.124283   1.000000
     17        -20.942659   1.000000
     18        -20.859178   1.000000
     19        -20.800694   1.000000
     20        -20.657158   1.000000
     21        -20.607540   1.000000
     22        -20.539894   1.000000
     23        -20.504100   1.000000
     24        -20.423114   1.000000
     25        -20.390345   1.000000
     26        -20.260658   1.000000
     27        -20.248262   1.000000
     28        -20.180562   1.000000
     29        -20.129207   1.000000
     30        -20.085438   1.000000
     31        -20.050260   1.000000
     32        -19.587959   1.000000
     33        -19.444157   1.000000
     34        -19.252598   1.000000
     35        -19.207167   1.000000
     36        -19.162152   1.000000
     37        -18.895668   1.000000
     38        -18.890346   1.000000
     39        -18.871203   1.000000
     40        -18.807623   1.000000
     41        -18.740107   1.000000
     42        -18.711335   1.000000
     43        -18.695722   1.000000
     44        -18.684286   1.000000
     45        -18.665607   1.000000
     46        -18.606651   1.000000
     47        -18.581025   1.000000
     48        -18.554587   1.000000
     49        -17.430208   1.000000
     50        -17.360046   1.000000
     51        -13.993895   1.000000
     52        -13.975165   1.000000
     53        -13.970350   1.000000
     54        -11.390069   1.000000
     55        -11.322652   1.000000
     56        -10.652477   1.000000
     57        -10.017874   1.000000
     58         -9.995636   1.000000
     59         -9.946025   1.000000
     60         -9.873606   1.000000
     61         -9.801078   1.000000
     62         -9.686504   1.000000
     63         -9.576574   1.000000
     64         -9.335236   1.000000
     65         -9.250294   1.000000
     66         -9.219960   1.000000
     67         -9.178031   1.000000
     68         -9.077113   1.000000
     69         -9.059632   1.000000
     70         -9.006732   1.000000
     71         -8.964212   1.000000
     72         -8.919543   1.000000
     73         -8.867367   1.000000
     74         -8.799481   1.000000
     75         -8.728881   1.000000
     76         -8.686482   1.000000
     77         -8.513325   1.000000
     78         -8.455487   1.000000
     79         -8.379383   1.000000
     80         -8.323791   1.000000
     81         -8.134255   1.000000
     82         -8.057146   1.000000
     83         -7.977401   1.000000
     84         -7.903251   1.000000
     85         -7.883838   1.000000
     86         -7.792380   1.000000
     87         -7.547891   1.000000
     88         -7.418223   1.000000
     89         -7.398256   1.000000
     90         -7.285823   1.000000
     91         -7.235082   1.000000
     92         -7.172340   1.000000
     93         -7.128757   1.000000
     94         -7.057918   1.000000
     95         -6.963164   1.000000
     96         -6.945532   1.000000
     97         -6.796488   1.000000
     98         -6.775384   1.000000
     99         -6.746532   1.000000
    100         -6.654018   1.000000
    101         -6.615686   1.000000
    102         -6.566092   1.000000
    103         -6.523890   1.000000
    104         -6.508876   1.000000
    105         -6.412755   1.000000
    106         -6.379188   1.000000
    107         -6.354686   1.000000
    108         -6.258658   1.000000
    109         -6.239606   1.000000
    110         -6.168280   1.000000
    111         -6.127818   1.000000
    112         -6.102673   1.000000
    113         -6.058175   1.000000
    114         -6.005965   1.000000
    115         -5.973966   1.000000
    116         -5.929837   1.000000
    117         -5.861256   1.000000
    118         -5.826036   1.000000
    119         -5.707179   1.000000
    120         -5.658811   1.000000
    121         -5.615174   1.000000
    122         -5.584831   1.000000
    123         -5.560585   1.000000
    124         -5.519446   1.000000
    125         -5.481844   1.000000
    126         -5.398190   1.000000
    127         -5.324323   1.000000
    128         -5.294161   1.000000
    129         -5.286676   1.000000
    130         -5.215018   1.000000
    131         -5.183632   1.000000
    132         -5.082701   1.000000
    133         -5.054597   1.000000
    134         -4.988126   1.000000
    135         -4.969581   1.000000
    136         -4.925692   1.000000
    137         -4.900132   1.000000
    138         -4.838753   1.000000
    139         -4.797375   1.000000
    140         -4.779606   1.000000
    141         -4.748708   1.000000
    142         -4.732907   1.000000
    143         -4.711342   1.000000
    144         -4.667439   1.000000
    145         -4.645092   1.000000
    146         -4.610737   1.000000
    147         -4.546129   1.000000
    148         -4.501254   1.000000
    149         -4.483411   1.000000
    150         -4.387342   1.000000
    151         -4.346683   1.000000
    152         -4.306241   1.000000
    153         -4.285633   1.000000
    154         -4.237302   1.000000
    155         -4.220172   1.000000
    156         -4.171923   1.000000
    157         -4.121212   1.000000
    158         -4.050556   1.000000
    159         -3.959303   1.000000
    160         -3.876337   1.000000
    161         -3.777838   1.000000
    162         -3.713894   1.000000
    163         -3.668233   1.000000
    164         -3.629246   1.000000
    165         -3.586841   1.000000
    166         -3.573389   1.000000
    167         -3.537878   1.000000
    168         -3.513681   1.000000
    169         -3.464547   1.000000
    170         -3.449214   1.000000
    171         -3.407289   1.000000
    172         -3.381716   1.000000
    173         -3.356726   1.000000
    174         -3.329072   1.000000
    175         -3.312922   1.000000
    176         -3.305699   1.000000
    177         -3.263141   1.000000
    178         -3.233178   0.999997
    179         -3.218912   0.999992
    180         -3.185111   0.999940
    181         -3.166963   0.999834
    182         -3.125765   0.998676
    183         -3.109139   0.997204
    184         -3.072499   0.987859
    185         -3.006548   0.906575
    186         -2.982010   0.834710
    187         -2.935785   0.625220
    188         -2.908020   0.470730
    189         -2.884682   0.343296
    190         -2.823123   0.101322
    191         -2.727370   0.004292
    192         -2.722277   0.003464
    193         -2.684754   0.000617
    194         -2.611718   0.000010
    195         -2.508942   0.000000
    196         -0.535880   0.000000
    197          0.506667   0.000000
    198          0.848539   0.000000
    199          1.384685   0.000000
    200          1.503176   0.000000
    201          2.269280   0.000000
    202          2.477444   0.000000
    203          2.763960   0.000000
    204          2.936338   0.000000
    205          3.344850   0.000000
    206          3.953461   0.000000
    207          4.292169   0.000000
    208          4.538043   0.000000
    209          4.993810   0.000000
    210          5.161561   0.000000
    211          5.234635   0.000000
    212          5.334101   0.000000
    213          5.411042   0.000000
    214          5.458451   0.000000
    215          5.519120   0.000000
    216          5.586791   0.000000
    217          5.687968   0.000000
    218          5.764429   0.000000
    219          5.800916   0.000000
    220          5.876424   0.000000
    221          5.907693   0.000000
    222          5.940779   0.000000
    223          6.040934   0.000000
    224          6.115166   0.000000
    225          6.207178   0.000000
    226          6.272125   0.000000
 
  0.0000000E+00  0.2500000E+00  0.0000000E+00  0.1666667E+00
      1        -30.494062   1.000000
      2        -27.546890   1.000000
      3        -27.147508   1.000000
      4        -27.010277   1.000000
      5        -22.654490   1.000000
      6        -22.339262   1.000000
      7        -22.236963   1.000000
      8        -22.167655   1.000000
      9        -21.998735   1.000000
     10        -21.772154   1.000000
     11        -21.553944   1.000000
     12        -21.475061   1.000000
     13        -21.401845   1.000000
     14        -21.340418   1.000000
     15        -21.149921   1.000000
     16        -21.083060   1.000000
     17        -20.978831   1.000000
     18        -20.837354   1.000000
     19        -20.820224   1.000000
     20        -20.696095   1.000000
     21        -20.633801   1.000000
     22        -20.542776   1.000000
     23        -20.511131   1.000000
     24        -20.447543   1.000000
     25        -20.365749   1.000000
     26        -20.236983   1.000000
     27        -20.212060   1.000000
     28        -20.167590   1.000000
     29        -20.141761   1.000000
     30        -20.072850   1.000000
     31        -20.041622   1.000000
     32        -19.600738   1.000000
     33        -19.337175   1.000000
     34        -19.278346   1.000000
     35        -19.247122   1.000000
     36        -19.214272   1.000000
     37        -18.909704   1.000000
     38        -18.868909   1.000000
     39        -18.860851   1.000000
     40        -18.807014   1.000000
     41        -18.793824   1.000000
     42        -18.736823   1.000000
     43        -18.679110   1.000000
     44        -18.648871   1.000000
     45        -18.645979   1.000000
     46        -18.616058   1.000000
     47        -18.569816   1.000000
     48        -18.550163   1.000000
     49        -17.438130   1.000000
     50        -17.356170   1.000000
     51        -13.994068   1.000000
     52        -13.975105   1.000000
     53        -13.970410   1.000000
     54        -11.387346   1.000000
     55        -11.323999   1.000000
     56        -10.672307   1.000000
     57        -10.122582   1.000000
     58        -10.045727   1.000000
     59         -9.961862   1.000000
     60         -9.909203   1.000000
     61         -9.831943   1.000000
     62         -9.787321   1.000000
     63         -9.612531   1.000000
     64         -9.478673   1.000000
     65         -9.330388   1.000000
     66         -9.283116   1.000000
     67         -9.216445   1.000000
     68         -9.199209   1.000000
     69         -9.060168   1.000000
     70         -8.954613   1.000000
     71         -8.917941   1.000000
     72         -8.870818   1.000000
     73         -8.835816   1.000000
     74         -8.686859   1.000000
     75         -8.648650   1.000000
     76         -8.563714   1.000000
     77         -8.479417   1.000000
     78         -8.361632   1.000000
     79         -8.317532   1.000000
     80         -8.204303   1.000000
     81         -8.074210   1.000000
     82         -7.988719   1.000000
     83         -7.911116   1.000000
     84         -7.780332   1.000000
     85         -7.715985   1.000000
     86         -7.676243   1.000000
     87         -7.637924   1.000000
     88         -7.539070   1.000000
     89         -7.366270   1.000000
     90         -7.286267   1.000000
     91         -7.224411   1.000000
     92         -7.140536   1.000000
     93         -7.115435   1.000000
     94         -7.039897   1.000000
     95         -6.969722   1.000000
     96         -6.795933   1.000000
     97         -6.755276   1.000000
     98         -6.724279   1.000000
     99         -6.711323   1.000000
    100         -6.627723   1.000000
    101         -6.611222   1.000000
    102         -6.565320   1.000000
    103         -6.513952   1.000000
    104         -6.474197   1.000000
    105         -6.432330   1.000000
    106         -6.378093   1.000000
    107         -6.314689   1.000000
    108         -6.298821   1.000000
    109         -6.239733   1.000000
    110         -6.208409   1.000000
    111         -6.182248   1.000000
    112         -6.137741   1.000000
    113         -6.104772   1.000000
    114         -6.039603   1.000000
    115         -6.010895   1.000000
    116         -5.953856   1.000000
    117         -5.933931   1.000000
    118         -5.859484   1.000000
    119         -5.808879   1.000000
    120         -5.746827   1.000000
    121         -5.664368   1.000000
    122         -5.606814   1.000000
    123         -5.575942   1.000000
    124         -5.504748   1.000000
    125         -5.453388   1.000000
    126         -5.392662   1.000000
    127         -5.370632   1.000000
    128         -5.284745   1.000000
    129         -5.261458   1.000000
    130         -5.186880   1.000000
    131         -5.166370   1.000000
    132         -5.136080   1.000000
    133         -5.106884   1.000000
    134         -5.021482   1.000000
    135         -4.978075   1.000000
    136         -4.949139   1.000000
    137         -4.869913   1.000000
    138         -4.849345   1.000000
    139         -4.798687   1.000000
    140         -4.783372   1.000000
    141         -4.744925   1.000000
    142         -4.731354   1.000000
    143         -4.703314   1.000000
    144         -4.694028   1.000000
    145         -4.663664   1.000000
    146         -4.584001   1.000000
    147         -4.541051   1.000000
    148         -4.492458   1.000000
    149         -4.461391   1.000000
    150         -4.447304   1.000000
    151         -4.409429   1.000000
    152         -4.283235   1.000000
    153         -4.251769   1.000000
    154         -4.215753   1.000000
    155         -4.188600   1.000000
    156         -4.125445   1.000000
    157         -4.082416   1.000000
    158         -4.040440   1.000000
    159         -3.961945   1.000000
    160         -3.892621   1.000000
    161         -3.809746   1.000000
    162         -3.751379   1.000000
    163         -3.680124   1.000000
    164         -3.659713   1.000000
    165         -3.653743   1.000000
    166         -3.624350   1.000000
    167         -3.573281   1.000000
    168         -3.529783   1.000000
    169         -3.508941   1.000000
    170         -3.470584   1.000000
    171         -3.413942   1.000000
    172         -3.379218   1.000000
    173         -3.362402   1.000000
    174         -3.339617   1.000000
    175         -3.323831   1.000000
    176         -3.292542   1.000000
    177         -3.266618   1.000000
    178         -3.220879   0.999993
    179         -3.202338   0.999978
    180         -3.170290   0.999861
    181         -3.133691   0.999090
    182         -3.112807   0.997619
    183         -3.094530   0.994830
    184         -3.070975   0.987163
    185         -3.029072   0.949341
    186         -2.972871   0.800580
    187         -2.958902   0.740907
    188         -2.946438   0.680779
    189         -2.908915   0.475768
    190         -2.874868   0.293814
    191         -2.728537   0.004504
    192         -2.714063   0.002428
    193         -2.702444   0.001438
    194         -2.634833   0.000041
    195         -2.500903   0.000000
    196         -0.532925   0.000000
    197          0.571378   0.000000
    198          0.883390   0.000000
    199          1.413094   0.000000
    200          1.507950   0.000000
    201          2.148022   0.000000
    202          2.508137   0.000000
    203          2.821410   0.000000
    204          2.990099   0.000000
    205          3.361346   0.000000
    206          3.864226   0.000000
    207          4.487387   0.000000
    208          4.797289   0.000000
    209          4.875010   0.000000
    210          5.108795   0.000000
    211          5.162006   0.000000
    212          5.252311   0.000000
    213          5.304604   0.000000
    214          5.361814   0.000000
    215          5.572761   0.000000
    216          5.671878   0.000000
    217          5.744928   0.000000
    218          5.813170   0.000000
    219          5.862626   0.000000
    220          5.892181   0.000000
    221          5.926856   0.000000
    222          6.020520   0.000000
    223          6.091546   0.000000
    224          6.116326   0.000000
    225          6.244189   0.000000
    226          6.412144   0.000000
 
  0.3333333E+00  0.2500000E+00  0.0000000E+00  0.1666667E+00
      1        -30.494062   1.000000
      2        -27.546908   1.000000
      3        -27.147464   1.000000
      4        -27.010340   1.000000
      5        -22.585701   1.000000
      6        -22.368076   1.000000
      7        -22.308584   1.000000
      8        -22.222689   1.000000
      9        -21.960337   1.000000
     10        -21.798547   1.000000
     11        -21.523056   1.000000
     12        -21.443990   1.000000
     13        -21.345827   1.000000
     14        -21.264673   1.000000
     15        -21.170111   1.000000
     16        -21.145016   1.000000
     17        -20.973897   1.000000
     18        -20.880909   1.000000
     19        -20.862884   1.000000
     20        -20.682225   1.000000
     21        -20.650358   1.000000
     22        -20.522103   1.000000
     23        -20.480211   1.000000
     24        -20.372370   1.000000
     25        -20.314772   1.000000
     26        -20.285532   1.000000
     27        -20.234384   1.000000
     28        -20.203319   1.000000
     29        -20.112539   1.000000
     30        -20.097699   1.000000
     31        -20.077803   1.000000
     32        -19.548775   1.000000
     33        -19.413865   1.000000
     34        -19.301542   1.000000
     35        -19.245612   1.000000
     36        -19.210846   1.000000
     37        -18.904528   1.000000
     38        -18.864553   1.000000
     39        -18.812804   1.000000
     40        -18.795015   1.000000
     41        -18.737185   1.000000
     42        -18.730559   1.000000
     43        -18.687184   1.000000
     44        -18.677385   1.000000
     45        -18.648258   1.000000
     46        -18.612183   1.000000
     47        -18.601815   1.000000
     48        -18.568510   1.000000
     49        -17.433778   1.000000
     50        -17.361042   1.000000
     51        -13.994063   1.000000
     52        -13.975092   1.000000
     53        -13.970379   1.000000
     54        -11.385535   1.000000
     55        -11.326752   1.000000
     56        -10.655951   1.000000
     57        -10.095157   1.000000
     58         -9.967538   1.000000
     59         -9.926305   1.000000
     60         -9.854557   1.000000
     61         -9.810682   1.000000
     62         -9.798662   1.000000
     63         -9.625380   1.000000
     64         -9.453272   1.000000
     65         -9.372364   1.000000
     66         -9.290246   1.000000
     67         -9.219063   1.000000
     68         -9.179319   1.000000
     69         -9.093279   1.000000
     70         -9.049149   1.000000
     71         -8.986477   1.000000
     72         -8.917255   1.000000
     73         -8.840114   1.000000
     74         -8.763454   1.000000
     75         -8.720268   1.000000
     76         -8.656035   1.000000
     77         -8.429814   1.000000
     78         -8.318019   1.000000
     79         -8.295237   1.000000
     80         -8.148767   1.000000
     81         -8.054229   1.000000
     82         -7.986598   1.000000
     83         -7.944382   1.000000
     84         -7.888712   1.000000
     85         -7.822074   1.000000
     86         -7.770143   1.000000
     87         -7.457142   1.000000
     88         -7.421597   1.000000
     89         -7.355754   1.000000
     90         -7.249158   1.000000
     91         -7.167216   1.000000
     92         -7.049283   1.000000
     93         -7.021357   1.000000
     94         -6.979401   1.000000
     95         -6.922385   1.000000
     96         -6.885396   1.000000
     97         -6.823321   1.000000
     98         -6.775871   1.000000
     99         -6.745581   1.000000
    100         -6.657574   1.000000
    101         -6.622631   1.000000
    102         -6.569851   1.000000
    103         -6.527994   1.000000
    104         -6.505893   1.000000
    105         -6.444085   1.000000
    106         -6.424638   1.000000
    107         -6.318557   1.000000
    108         -6.301568   1.000000
    109         -6.257038   1.000000
    110         -6.222971   1.000000
    111         -6.123730   1.000000
    112         -6.100941   1.000000
    113         -6.068901   1.000000
    114         -5.991565   1.000000
    115         -5.972517   1.000000
    116         -5.924880   1.000000
    117         -5.906053   1.000000
    118         -5.821073   1.000000
    119         -5.785901   1.000000
    120         -5.735480   1.000000