       N       E                     dE             d eps       ncg     rms          rms(c)
DAV:   1     0.356610194579E+04    0.35661E+04   -0.17539E+05  3244   0.144E+03
DAV:   2    -0.650154791662E+01   -0.35726E+04   -0.34803E+04  4246   0.357E+02
DAV:   3    -0.524134038140E+03   -0.51763E+03   -0.51016E+03  3632   0.142E+02
DAV:   4    -0.539271879808E+03   -0.15138E+02   -0.15044E+02  3736   0.268E+01
DAV:   5    -0.539795118472E+03   -0.52324E+00   -0.52235E+00  4120   0.424E+00    0.500E+01
RMM:   6    -0.503303848318E+03    0.36491E+02   -0.28877E+02  3164   0.318E+01    0.374E+01
RMM:   7    -0.481602939374E+03    0.21701E+02   -0.42126E+01  3167   0.122E+01    0.203E+01
RMM:   8    -0.482249368483E+03   -0.64643E+00   -0.13703E+01  3167   0.685E+00    0.185E+01
RMM:   9    -0.482687607931E+03   -0.43824E+00   -0.49012E+00  3167   0.404E+00    0.152E+01
RMM:  10    -0.481484657445E+03    0.12030E+01   -0.29627E+00  3199   0.308E+00    0.186E+01
RMM:  11    -0.479820805458E+03    0.16639E+01   -0.21952E+00  3255   0.257E+00    0.136E+01
RMM:  12    -0.481580537696E+03   -0.17597E+01   -0.26178E+00  3488   0.255E+00    0.200E+01
RMM:  13    -0.482019577034E+03   -0.43904E+00   -0.18057E+00  3416   0.226E+00    0.263E+01
RMM:  14    -0.479337870657E+03    0.26817E+01   -0.66897E-01  3273   0.146E+00    0.118E+01
RMM:  15    -0.479017498236E+03    0.32037E+00   -0.43135E-01  3361   0.113E+00    0.875E+00
RMM:  16    -0.478887878497E+03    0.12962E+00   -0.25958E-01  3301   0.916E-01    0.630E+00
RMM:  17    -0.478776030046E+03    0.11185E+00   -0.11387E-01  3242   0.684E-01    0.388E+00
RMM:  18    -0.478789780843E+03   -0.13751E-01   -0.67856E-02  3266   0.496E-01    0.418E+00
RMM:  19    -0.478925732658E+03   -0.13595E+00   -0.99278E-02  3480   0.530E-01    0.855E+00
RMM:  20    -0.478718490809E+03    0.20724E+00   -0.67928E-02  3358   0.452E-01    0.337E+00
RMM:  21    -0.478686790470E+03    0.31700E-01   -0.20811E-02  3237   0.292E-01    0.184E+00
RMM:  22    -0.478688279567E+03   -0.14891E-02   -0.15924E-02  3375   0.229E-01    0.198E+00
RMM:  23    -0.478668248094E+03    0.20031E-01   -0.74430E-03  3219   0.180E-01    0.123E+00
RMM:  24    -0.478670347627E+03   -0.20995E-02   -0.53074E-03  3176   0.127E-01    0.135E+00
RMM:  25    -0.478668614565E+03    0.17331E-02   -0.48293E-03  3285   0.113E-01    0.170E+00
RMM:  26    -0.478657370125E+03    0.11244E-01   -0.60529E-03  3525   0.133E-01    0.190E+00
RMM:  27    -0.478640573634E+03    0.16796E-01   -0.50323E-03  3383   0.124E-01    0.141E+00
RMM:  28    -0.478627171904E+03    0.13402E-01   -0.48204E-03  3443   0.111E-01    0.113E+00
RMM:  29    -0.478613746432E+03    0.13425E-01   -0.82486E-03  3935   0.132E-01    0.109E+00
RMM:  30    -0.478607761697E+03    0.59847E-02   -0.36502E-03  3432   0.102E-01    0.120E+00
RMM:  31    -0.478591947749E+03    0.15814E-01   -0.87081E-03  4192   0.134E-01    0.612E-01
RMM:  32    -0.478590522468E+03    0.14253E-02   -0.35759E-03  3534   0.916E-02    0.787E-01
RMM:  33    -0.478585627729E+03    0.48947E-02   -0.49754E-03  3876   0.103E-01    0.455E-01
RMM:  34    -0.478586891590E+03   -0.12639E-02   -0.15512E-03  3254   0.643E-02    0.485E-01
RMM:  35    -0.478587235474E+03   -0.34388E-03   -0.10570E-03  3034   0.486E-02    0.279E-01
RMM:  36    -0.478589257609E+03   -0.20221E-02   -0.62507E-04  2559   0.384E-02    0.338E-01
RMM:  37    -0.478591500888E+03   -0.22433E-02   -0.48756E-04  2301   0.364E-02    0.278E-01
RMM:  38    -0.478594413046E+03   -0.29122E-02   -0.44509E-04  2254   0.327E-02    0.330E-01
RMM:  39    -0.478595261660E+03   -0.84861E-03   -0.19989E-04  2020   0.236E-02    0.323E-01
RMM:  40    -0.478598837466E+03   -0.35758E-02   -0.69421E-04  2423   0.358E-02    0.198E-01
RMM:  41    -0.478600081046E+03   -0.12436E-02   -0.56750E-04  2319   0.305E-02    0.137E-01
RMM:  42    -0.478600735081E+03   -0.65403E-03   -0.13625E-04  1848   0.184E-02    0.117E-01
RMM:  43    -0.478601535161E+03   -0.80008E-03   -0.10675E-04  1740   0.156E-02    0.733E-02
RMM:  44    -0.478602210189E+03   -0.67503E-03   -0.74736E-05  1695   0.130E-02    0.500E-02
RMM:  45    -0.478602699788E+03   -0.48960E-03   -0.63566E-05  1640   0.113E-02    0.395E-02
RMM:  46    -0.478602995236E+03   -0.29545E-03   -0.45527E-05  1434   0.925E-03    0.413E-02
RMM:  47    -0.478603124406E+03   -0.12917E-03   -0.22732E-05  1309   0.714E-03    0.244E-02
RMM:  48    -0.478603188703E+03   -0.64296E-04   -0.12456E-05  1133   0.608E-03
   1 F= -.47860319E+03 E0= -.47846696E+03  d E =-.478603E+03
       N       E                     dE             d eps       ncg     rms          rms(c)
DAV:   1    -0.478603186150E+03   -0.61744E-04   -0.28442E-02  3232   0.384E-01    0.797E-02
RMM:   2    -0.478605190286E+03   -0.20041E-02   -0.12700E-03  2838   0.689E-02    0.756E-01
RMM:   3    -0.478602613221E+03    0.25771E-02   -0.30338E-04  2069   0.450E-02    0.496E-02
RMM:   4    -0.478603231841E+03   -0.61862E-03   -0.79068E-05  1784   0.271E-02    0.135E-01
RMM:   5    -0.478603229776E+03    0.20648E-05   -0.30462E-05  1689   0.136E-02
   2 F= -.47860323E+03 E0= -.47846673E+03  d E =-.410737E-04
       N       E                     dE             d eps       ncg     rms          rms(c)
DAV:   1    -0.478603252265E+03   -0.20424E-04   -0.39938E-03  3144   0.144E-01    0.497E-02
RMM:   2    -0.478603920286E+03   -0.66802E-03   -0.34760E-04  2105   0.341E-02    0.425E-01
RMM:   3    -0.478603047854E+03    0.87243E-03   -0.12801E-04  1848   0.263E-02    0.697E-02
RMM:   4    -0.478603249108E+03   -0.20125E-03   -0.34728E-05  1592   0.176E-02    0.401E-02
RMM:   5    -0.478603270490E+03   -0.21382E-04   -0.92248E-06  1263   0.726E-03
   3 F= -.47860327E+03 E0= -.47846712E+03  d E =-.817871E-04
