<?xml version="1.0" encoding="ISO-8859-1"?>
<modeling>
 <generator>
  <i name="program" type="string">vasp </i>
  <i name="version" type="string">6.3.2  </i>
  <i name="subversion" type="string">27Jun22 (build Mar 15 2023 15:45:48) complex                          parallel </i>
  <i name="platform" type="string">LinuxIFC </i>
  <i name="date" type="string">2024 07 25 </i>
  <i name="time" type="string">09:04:15 </i>
 </generator>
 <incar>
  <i type="string" name="SYSTEM">ni3al</i>
  <i type="int" name="ISTART">     0</i>
  <i type="string" name="PREC">Accurate</i>
  <i type="string" name="ALGO">Fast</i>
  <i name="AMIN">      0.01000000</i>
  <i type="int" name="ICHARG">     2</i>
  <i type="int" name="NELM">   150</i>
  <i type="int" name="IBRION">     2</i>
  <i name="EDIFF">      0.00010000</i>
  <i name="EDIFFG">     -0.02000000</i>
  <i type="int" name="NSW">   300</i>
  <i type="int" name="ISIF">     2</i>
  <i name="ENCUT">    530.00000000</i>
  <i type="string" name="LREAL">Auto</i>
  <i type="int" name="ISMEAR">     0</i>
  <i name="SIGMA">      0.10000000</i>
  <i type="int" name="LMAXMIX">     4</i>
  <i type="logical" name="LWAVE"> F  </i>
  <i type="logical" name="LCHARG"> F  </i>
 </incar>
 <primitive_cell>
  <structure name="primitive_cell" >
   <crystal>
    <varray name="basis" >
     <v>       9.61490200       0.00000000       0.00000000 </v>
     <v>       0.00000000       8.32674900       0.00000000 </v>
     <v>       0.00000000       0.00000000      21.56058900 </v>
    </varray>
    <i name="volume">   1726.15963408 </i>
    <varray name="rec_basis" >
     <v>       0.10400522       0.00000000       0.00000000 </v>
     <v>       0.00000000       0.12009489       0.00000000 </v>
     <v>       0.00000000       0.00000000       0.04638092 </v>
    </varray>
   </crystal>
   <varray name="positions" >
    <v>       0.17345600       0.98642100       0.00000000 </v>
    <v>       0.42345600       0.48642100       0.00000000 </v>
    <v>       0.09691200       0.50000000       0.10142900 </v>
    <v>       0.34691300       0.00000000       0.10142900 </v>
    <v>       0.15308800       0.33333300       0.00000000 </v>
    <v>       0.40308800       0.83333300       0.00000000 </v>
    <v>       0.17345600       0.68024600       0.00000000 </v>
    <v>       0.42345600       0.18024500       0.00000000 </v>
    <v>       0.07654400       0.15308700       0.10142900 </v>
    <v>       0.32654400       0.65308700       0.10142900 </v>
    <v>       0.07654400       0.84691300       0.10142900 </v>
    <v>       0.32654400       0.34691300       0.10142900 </v>
    <v>       0.17345600       0.31975500       0.20285800 </v>
    <v>       0.42345600       0.81975500       0.20285800 </v>
    <v>       0.11183045       0.83511208       0.30510504 </v>
    <v>       0.37145489       0.28962016       0.30303093 </v>
    <v>       0.15308700       0.66666700       0.20285800 </v>
    <v>       0.40308800       0.16666700       0.20285800 </v>
    <v>       0.17345600       0.01358000       0.20285800 </v>
    <v>       0.42345600       0.51358000       0.20285800 </v>
    <v>       0.06491250       0.48307065       0.30061145 </v>
    <v>       0.04542960       0.98154583       0.32437930 </v>
    <v>       0.15051393       0.09622838       0.33048528 </v>
    <v>       0.34261997       0.72185118       0.30243795 </v>
    <v>       0.67345600       0.98642100       0.00000000 </v>
    <v>       0.92345600       0.48642100       0.00000000 </v>
    <v>       0.59691300       0.50000000       0.10142900 </v>
    <v>       0.84691300       0.00000000       0.10142900 </v>
    <v>       0.65308800       0.33333300       0.00000000 </v>
    <v>       0.90308800       0.83333300       0.00000000 </v>
    <v>       0.67345600       0.68024500       0.00000000 </v>
    <v>       0.92345600       0.18024500       0.00000000 </v>
    <v>       0.57654400       0.15308700       0.10142900 </v>
    <v>       0.82654400       0.65308700       0.10142900 </v>
    <v>       0.57654400       0.84691300       0.10142900 </v>
    <v>       0.82654400       0.34691300       0.10142900 </v>
    <v>       0.67345600       0.31975500       0.20285800 </v>
    <v>       0.92345600       0.81975500       0.20285800 </v>
    <v>       0.60849847       0.83812800       0.30437641 </v>
    <v>       0.88700204       0.26107164       0.30465585 </v>
    <v>       0.65308800       0.66666700       0.20285800 </v>
    <v>       0.90308800       0.16666700       0.20285800 </v>
    <v>       0.67345600       0.01358000       0.20285800 </v>
    <v>       0.92345600       0.51357900       0.20285800 </v>
    <v>       0.59487928       0.48998007       0.29933400 </v>
    <v>       0.53251850       0.98352338       0.31883339 </v>
    <v>       0.62733212       0.11026480       0.32492612 </v>
    <v>       0.84844846       0.74716502       0.30291043 </v>
    <v>       0.55901786       0.47611481       0.36512990 </v>
    <v>       0.00000000       0.66666700       0.14070600 </v>
    <v>       0.25000000       0.16666700       0.14070600 </v>
    <v>       0.00000000       0.33333300       0.06215200 </v>
    <v>       0.25000000       0.83333300       0.06215200 </v>
    <v>       0.00000000       0.00000000       0.03927700 </v>
    <v>       0.25000000       0.50000000       0.03927700 </v>
    <v>       0.00000000       0.66666700       0.26500900 </v>
    <v>       0.25000000       0.16666700       0.26500900 </v>
    <v>       0.00000000       0.33333300       0.24213400 </v>
    <v>       0.25000000       0.83333300       0.24213400 </v>
    <v>       0.00000000       0.00000000       0.16358100 </v>
    <v>       0.25000000       0.50000000       0.16358100 </v>
    <v>       0.50000000       0.66666700       0.14070600 </v>
    <v>       0.75000000       0.16666700       0.14070600 </v>
    <v>       0.50000000       0.33333300       0.06215200 </v>
    <v>       0.75000000       0.83333300       0.06215200 </v>
    <v>       0.50000000       0.00000000       0.03927700 </v>
    <v>       0.75000000       0.50000000       0.03927700 </v>
    <v>       0.50000000       0.66666700       0.26500900 </v>
    <v>       0.75000000       0.16666700       0.26500900 </v>
    <v>       0.50000000       0.33333300       0.24213400 </v>
    <v>       0.75000000       0.83333300       0.24213400 </v>
    <v>       0.50000000       0.00000000       0.16358100 </v>
    <v>       0.75000000       0.50000000       0.16358100 </v>
    <v>       0.26202829       0.49428027       0.38569518 </v>
   </varray>
  </structure>
  <varray name="primitive_index" >
   <v type="int" >        1 </v>
   <v type="int" >        2 </v>
   <v type="int" >        3 </v>
   <v type="int" >        4 </v>
   <v type="int" >        5 </v>
   <v type="int" >        6 </v>
   <v type="int" >        7 </v>
   <v type="int" >        8 </v>
   <v type="int" >        9 </v>
   <v type="int" >       10 </v>
   <v type="int" >       11 </v>
   <v type="int" >       12 </v>
   <v type="int" >       13 </v>
   <v type="int" >       14 </v>
   <v type="int" >       15 </v>
   <v type="int" >       16 </v>
   <v type="int" >       17 </v>
   <v type="int" >       18 </v>
   <v type="int" >       19 </v>
   <v type="int" >       20 </v>
   <v type="int" >       21 </v>
   <v type="int" >       22 </v>
   <v type="int" >       23 </v>
   <v type="int" >       24 </v>
   <v type="int" >       25 </v>
   <v type="int" >       26 </v>
   <v type="int" >       27 </v>
   <v type="int" >       28 </v>
   <v type="int" >       29 </v>
   <v type="int" >       30 </v>
   <v type="int" >       31 </v>
   <v type="int" >       32 </v>
   <v type="int" >       33 </v>
   <v type="int" >       34 </v>
   <v type="int" >       35 </v>
   <v type="int" >       36 </v>
   <v type="int" >       37 </v>
   <v type="int" >       38 </v>
   <v type="int" >       39 </v>
   <v type="int" >       40 </v>
   <v type="int" >       41 </v>
   <v type="int" >       42 </v>
   <v type="int" >       43 </v>
   <v type="int" >       44 </v>
   <v type="int" >       45 </v>
   <v type="int" >       46 </v>
   <v type="int" >       47 </v>
   <v type="int" >       48 </v>
   <v type="int" >       49 </v>
   <v type="int" >       50 </v>
   <v type="int" >       51 </v>
   <v type="int" >       52 </v>
   <v type="int" >       53 </v>
   <v type="int" >       54 </v>
   <v type="int" >       55 </v>
   <v type="int" >       56 </v>
   <v type="int" >       57 </v>
   <v type="int" >       58 </v>
   <v type="int" >       59 </v>
   <v type="int" >       60 </v>
   <v type="int" >       61 </v>
   <v type="int" >       62 </v>
   <v type="int" >       63 </v>
   <v type="int" >       64 </v>
   <v type="int" >       65 </v>
   <v type="int" >       66 </v>
   <v type="int" >       67 </v>
   <v type="int" >       68 </v>
   <v type="int" >       69 </v>
   <v type="int" >       70 </v>
   <v type="int" >       71 </v>
   <v type="int" >       72 </v>
   <v type="int" >       73 </v>
   <v type="int" >       74 </v>
  </varray>
 </primitive_cell>
 <kpoints>
  <generation param="Gamma">
   <v type="int" name="divisions">       3        4        1 </v>
   <v name="usershift">      0.00000000       0.00000000       0.00000000 </v>
   <v name="genvec1">      0.33333333       0.00000000       0.00000000 </v>
   <v name="genvec2">      0.00000000       0.25000000       0.00000000 </v>
   <v name="genvec3">      0.00000000       0.00000000       1.00000000 </v>
   <v name="shift">      0.00000000       0.00000000       0.00000000 </v>
  </generation>
  <varray name="kpointlist" >
   <v>       0.00000000       0.00000000       0.00000000 </v>
   <v>       0.33333333       0.00000000       0.00000000 </v>
   <v>       0.00000000       0.25000000       0.00000000 </v>
   <v>       0.33333333       0.25000000       0.00000000 </v>
   <v>      -0.33333333       0.25000000       0.00000000 </v>
   <v>       0.00000000       0.50000000       0.00000000 </v>
   <v>       0.33333333       0.50000000       0.00000000 </v>
  </varray>
  <varray name="weights" >
   <v>       0.08333333 </v>
   <v>       0.16666667 </v>
   <v>       0.16666667 </v>
   <v>       0.16666667 </v>
   <v>       0.16666667 </v>
   <v>       0.08333333 </v>
   <v>       0.16666667 </v>
  </varray>
 </kpoints>
 <parameters>
  <separator name="general" >
   <i type="string" name="SYSTEM">ni3al</i>
   <i type="logical" name="LCOMPAT"> F  </i>
  </separator>
  <separator name="electronic" >
   <i type="string" name="PREC">accura</i>
   <i name="ENMAX">    530.00000000</i>
   <i name="ENAUG">    613.61400000</i>
   <i name="EDIFF">      0.00010000</i>
   <i type="int" name="IALGO">    68</i>
   <i type="int" name="IWAVPR">    11</i>
   <i type="int" name="NBANDS">   226</i>
   <i type="int" name="NBANDSLOW">    -1</i>
   <i type="int" name="NBANDSHIGH">    -1</i>
   <i name="NELECT">    376.00000000</i>
   <i type="int" name="TURBO">     0</i>
   <i type="int" name="IRESTART">     0</i>
   <i type="int" name="NREBOOT">     0</i>
   <i type="int" name="NMIN">     0</i>
   <i name="EREF">      0.00000000</i>
   <separator name="electronic smearing" >
    <i type="int" name="ISMEAR">     0</i>
    <i name="SIGMA">      0.10000000</i>
    <i name="KSPACING">      0.50000000</i>
    <i type="logical" name="KGAMMA"> T  </i>
    <i type="logical" name="KBLOWUP"> T  </i>
   </separator>
   <separator name="electronic projectors" >
    <i type="logical" name="LREAL"> T  </i>
    <v name="ROPT">     -0.00025000     -0.00025000     -0.00025000     -0.00025000</v>
    <i type="int" name="LMAXPAW">  -100</i>
    <i type="int" name="LMAXMIX">     4</i>
    <i type="logical" name="NLSPLINE"> F  </i>
   </separator>
   <separator name="electronic startup" >
    <i type="int" name="ISTART">     0</i>
    <i type="int" name="ICHARG">     2</i>
    <i type="int" name="INIWAV">     1</i>
   </separator>
   <separator name="electronic spin" >
    <i type="int" name="ISPIN">     1</i>
    <i type="logical" name="LNONCOLLINEAR"> F  </i>
    <v name="MAGMOM">      1.00000000      1.00000000      1.00000000      1.00000000      1.00000000      1.00000000      1.00000000      1.00000000      1.00000000      1.00000000      1.00000000      1.00000000      1.00000000      1.00000000      1.00000000      1.00000000      1.00000000      1.00000000      1.00000000      1.00000000
      1.00000000      1.00000000      1.00000000      1.00000000      1.00000000      1.00000000      1.00000000      1.00000000      1.00000000      1.00000000      1.00000000      1.00000000      1.00000000      1.00000000      1.00000000      1.00000000      1.00000000      1.00000000      1.00000000      1.00000000
      1.00000000      1.00000000      1.00000000      1.00000000      1.00000000      1.00000000      1.00000000      1.00000000      1.00000000      1.00000000      1.00000000      1.00000000      1.00000000      1.00000000      1.00000000      1.00000000      1.00000000      1.00000000      1.00000000      1.00000000
      1.00000000      1.00000000      1.00000000      1.00000000      1.00000000      1.00000000      1.00000000      1.00000000      1.00000000      1.00000000      1.00000000      1.00000000      1.00000000      1.00000000</v>
    <i name="NUPDOWN">     -1.00000000</i>
    <i type="logical" name="LSORBIT"> F  </i>
    <v name="SAXIS">      0.00000000      0.00000000      1.00000000</v>
    <i type="logical" name="LSPIRAL"> F  </i>
    <v name="QSPIRAL">      0.00000000      0.00000000      0.00000000</v>
    <i type="logical" name="LZEROZ"> F  </i>
   </separator>
   <separator name="electronic exchange-correlation" >
    <i type="logical" name="LASPH"> F  </i>
    <i type="logical" name="LMETAGGA"> F  </i>
   </separator>
   <separator name="electronic convergence" >
    <i type="int" name="NELM">   150</i>
    <i type="int" name="NELMDL">    -5</i>
    <i type="int" name="NELMIN">     2</i>
    <i name="ENINI">    530.00000000</i>
    <separator name="electronic convergence detail" >
     <i type="logical" name="LDIAG"> T  </i>
     <i type="logical" name="LSUBROT"> F  </i>
     <i name="WEIMIN">      0.00100000</i>
     <i name="EBREAK">      0.00000011</i>
     <i name="DEPER">      0.30000000</i>
     <i type="int" name="NRMM">     4</i>
     <i name="TIME">      0.40000000</i>
    </separator>
   </separator>
   <separator name="electronic mixer" >
    <i name="AMIX">      0.40000000</i>
    <i name="BMIX">      1.00000000</i>
    <i name="AMIN">      0.01000000</i>
    <i name="AMIX_MAG">      1.60000000</i>
    <i name="BMIX_MAG">      1.00000000</i>
    <separator name="electronic mixer details" >
     <i type="int" name="IMIX">     4</i>
     <i type="logical" name="MIXFIRST"> F  </i>
     <i type="int" name="MAXMIX">   -45</i>
     <i name="WC">    100.00000000</i>
     <i type="int" name="INIMIX">     1</i>
     <i type="int" name="MIXPRE">     1</i>
     <i type="int" name="MREMOVE">     5</i>
    </separator>
   </separator>
   <separator name="electronic dipolcorrection" >
    <i type="logical" name="LDIPOL"> F  </i>
    <i type="logical" name="LMONO"> F  </i>
    <i type="int" name="IDIPOL">     0</i>
    <i name="EPSILON">      1.00000000</i>
    <v name="DIPOL">   -100.00000000   -100.00000000   -100.00000000</v>
    <i name="EFIELD">      0.00000000</i>
   </separator>
  </separator>
  <separator name="grids" >
   <i type="int" name="NGX">    72</i>
   <i type="int" name="NGY">    64</i>
   <i type="int" name="NGZ">   162</i>
   <i type="int" name="NGXF">   144</i>
   <i type="int" name="NGYF">   128</i>
   <i type="int" name="NGZF">   324</i>
   <i type="logical" name="ADDGRID"> F  </i>
  </separator>
  <separator name="ionic" >
   <i type="int" name="NSW">   300</i>
   <i type="int" name="IBRION">     2</i>
   <i type="int" name="MDALGO">     0</i>
   <i type="int" name="ISIF">     2</i>
   <i name="PSTRESS">      0.00000000</i>
   <i name="EDIFFG">     -0.02000000</i>
   <i type="int" name="NFREE">     1</i>
   <i name="POTIM">      0.50000000</i>
   <i name="SMASS">     -3.00000000</i>
   <i name="SCALEE">      1.00000000</i>
  </separator>
  <separator name="ionic md" >
   <i name="TEBEG">      0.00010000</i>
   <i name="TEEND">      0.00010000</i>
   <i type="int" name="NBLOCK">     1</i>
   <i type="int" name="KBLOCK">   300</i>
   <i type="int" name="NPACO">   256</i>
   <i name="APACO">     10.00000000</i>
  </separator>
  <separator name="symmetry" >
   <i type="int" name="ISYM">     2</i>
   <i name="SYMPREC">      0.00001000</i>
  </separator>
  <separator name="dos" >
   <i type="int" name="LORBIT">     0</i>
   <v name="RWIGS">     -1.00000000     -1.00000000     -1.00000000     -1.00000000</v>
   <i type="int" name="NEDOS">   301</i>
   <i name="EMIN">     10.00000000</i>
   <i name="EMAX">    -10.00000000</i>
   <i name="EFERMI">      0.00000000</i>
  </separator>
  <separator name="writing" >
   <i type="int" name="NWRITE">     2</i>
   <i type="logical" name="LWAVE"> F  </i>
   <i type="logical" name="LDOWNSAMPLE"> F  </i>
   <i type="logical" name="LCHARG"> F  </i>
   <i type="logical" name="LPARD"> F  </i>
   <i type="logical" name="LVTOT"> F  </i>
   <i type="logical" name="LVHAR"> F  </i>
   <i type="logical" name="LELF"> F  </i>
   <i type="logical" name="LOPTICS"> F  </i>
   <v name="STM">      0.00000000      0.00000000      0.00000000      0.00000000      0.00000000      0.00000000      0.00000000</v>
  </separator>
  <separator name="performance" >
   <i type="int" name="NPAR">     1</i>
   <i type="int" name="NSIM">     4</i>
   <i type="int" name="NBLK">    -1</i>
   <i type="logical" name="LPLANE"> T  </i>
   <i type="logical" name="LSCALAPACK"> T  </i>
   <i type="logical" name="LSCAAWARE"> F  </i>
   <i type="logical" name="LSCALU"> F  </i>
   <i type="logical" name="LASYNC"> F  </i>
   <i type="logical" name="LORBITALREAL"> F  </i>
  </separator>
  <separator name="miscellaneous" >
   <i type="int" name="IDIOT">     3</i>
   <i type="int" name="PHON_NSTRUCT">    -1</i>
   <i type="logical" name="LMUSIC"> F  </i>
   <v name="POMASS">     16.00000000     18.99800000     26.98100000     39.09800000</v>
   <v name="DARWINR">      0.00000000      0.00000000      0.00000000      0.00000000</v>
   <v name="DARWINV">      1.00000000      1.00000000      1.00000000      1.00000000</v>
   <i type="logical" name="LCORR"> T  </i>
  </separator>
  <i type="logical" name="GGA_COMPAT"> T  </i>
  <i type="logical" name="LBERRY"> F  </i>
  <i type="int" name="ICORELEVEL">     0</i>
  <i type="logical" name="LDAU"> F  </i>
  <i type="int" name="I_CONSTRAINED_M">     0</i>
  <separator name="electronic exchange-correlation" >
   <i type="string" name="GGA">--</i>
   <i type="int" name="VOSKOWN">     0</i>
   <i type="logical" name="LHFCALC"> F  </i>
   <i type="string" name="PRECFOCK"></i>
   <i type="logical" name="LSYMGRAD"> F  </i>
   <i type="logical" name="LHFONE"> F  </i>
   <i type="logical" name="LRHFCALC"> F  </i>
   <i type="logical" name="LTHOMAS"> F  </i>
   <i type="logical" name="LMODELHF"> F  </i>
   <i type="logical" name="LFOCKACE"> F  </i>
   <i name="ENCUT4O">     -1.00000000</i>
   <i type="int" name="EXXOEP">     0</i>
   <i type="int" name="FOURORBIT">     0</i>
   <i name="AEXX">      0.00000000</i>
   <i name="HFALPHA">      0.00000000</i>
   <i name="MCALPHA">      0.00000000</i>
   <i name="ALDAX">      1.00000000</i>
   <i name="AGGAX">      1.00000000</i>
   <i name="ALDAC">      1.00000000</i>
   <i name="AGGAC">      1.00000000</i>
   <i type="int" name="NKREDX">     1</i>
   <i type="int" name="NKREDY">     1</i>
   <i type="int" name="NKREDZ">     1</i>
   <i type="logical" name="SHIFTRED"> F  </i>
   <i type="logical" name="ODDONLY"> F  </i>
   <i type="logical" name="EVENONLY"> F  </i>
   <i type="int" name="LMAXFOCK">     0</i>
   <i type="int" name="NMAXFOCKAE">     0</i>
   <i type="logical" name="LFOCKAEDFT"> F  </i>
   <i name="HFSCREEN">      0.00000000</i>
   <i name="HFSCREENC">      0.00000000</i>
   <i type="int" name="NBANDSGWLOW">     0</i>
  </separator>
  <separator name="vdW DFT" >
   <i type="logical" name="LUSE_VDW"> F  </i>
   <i name="Zab_VDW">     -0.84910000</i>
   <i name="PARAM1">      0.12340000</i>
   <i name="PARAM2">      1.00000000</i>
   <i name="PARAM3">      0.00000000</i>
  </separator>
  <separator name="model GW" >
   <i type="int" name="MODEL_GW">     0</i>
   <i name="MODEL_EPS0">     13.99588893</i>
   <i name="MODEL_ALPHA">      1.00000000</i>
  </separator>
  <separator name="linear response parameters" >
   <i type="logical" name="LEPSILON"> F  </i>
   <i type="logical" name="LRPA"> F  </i>
   <i type="logical" name="LNABLA"> F  </i>
   <i type="logical" name="LVEL"> F  </i>
   <i name="CSHIFT">      0.10000000</i>
   <i name="OMEGAMAX">     -1.00000000</i>
   <i name="DEG_THRESHOLD">      0.00200000</i>
   <i name="RTIME">     -0.10000000</i>
   <i name="WPLASMAI">      0.00000000</i>
   <v name="DFIELD">      0.00000000      0.00000000      0.00000000</v>
   <v name="WPLASMA">      0.00000000      0.00000000      0.00000000      0.00000000      0.00000000      0.00000000      0.00000000      0.00000000      0.00000000</v>
  </separator>
  <separator name="orbital magnetization" >
   <i type="logical" name="NUCIND"> F  </i>
   <v name="MAGPOS">      0.00000000      0.00000000      0.00000000</v>
   <i type="logical" name="LNICSALL"> T  </i>
   <i type="logical" name="ORBITALMAG"> F  </i>
   <i type="logical" name="LMAGBLOCH"> F  </i>
   <i type="logical" name="LCHIMAG"> F  </i>
   <i type="logical" name="LGAUGE"> T  </i>
   <i type="int" name="MAGATOM">     0</i>
   <v name="MAGDIPOL">      0.00000000      0.00000000      0.00000000</v>
   <v name="AVECCONST">      0.00000000      0.00000000      0.00000000</v>
  </separator>
  <separator name="response functions" >
   <i type="logical" name="LFINITE_TEMPERATURE"> F  </i>
   <i type="logical" name="LADDER"> F  </i>
   <i type="logical" name="LRPAFORCE"> F  </i>
   <i type="logical" name="LFXC"> F  </i>
   <i type="logical" name="LHARTREE"> T  </i>
   <i type="int" name="IBSE">     0</i>
   <v type="int" name="KPOINT">    -1     0     0     0</v>
   <i type="logical" name="LTCTC"> F  </i>
   <i type="logical" name="LTCTE"> F  </i>
   <i type="logical" name="LTETE"> F  </i>
   <i type="logical" name="LTRIPLET"> F  </i>
   <i type="logical" name="LFXCEPS"> F  </i>
   <i type="logical" name="LFXHEG"> F  </i>
   <i type="int" name="NATURALO">     2</i>
   <i type="logical" name="LHOLEGF"> F  </i>
   <i type="logical" name="L2ORDER"> F  </i>
   <i type="logical" name="LDMP1"> F  </i>
   <i type="logical" name="LMP2LT"> F  </i>
   <i type="logical" name="LSMP2LT"> F  </i>
   <i type="logical" name="LGWLF"> F  </i>
   <i name="ENCUTGW">     -2.00000000</i>
   <i name="ENCUTGWSOFT">     -2.00000000</i>
   <i name="ENCUTLF">     -1.00000000</i>
   <i type="logical" name="LESF_SPLINES"> F  </i>
   <i type="int" name="LMAXMP2">    -1</i>
   <i name="SCISSOR">      0.00000000</i>
   <i type="int" name="NOMEGA">     0</i>
   <i type="int" name="NOMEGAR">     0</i>
   <i type="int" name="NBANDSGW">    -1</i>
   <i type="int" name="NBANDSO">    -1</i>
   <i type="int" name="NBANDSV">    -1</i>
   <i type="int" name="NELMGW">     1</i>
   <i type="int" name="NELMHF">     1</i>
   <i type="int" name="DIM">     3</i>
   <i type="int" name="IESPILON">     4</i>
   <i type="int" name="ANTIRES">     0</i>
   <i name="OMEGAMAX">    -30.00000000</i>
   <i name="OMEGAMIN">    -30.00000000</i>
   <i name="OMEGATL">   -200.00000000</i>
   <i type="int" name="OMEGAGRID">     0</i>
   <i name="CSHIFT">     -0.10000000</i>
   <i type="logical" name="LSELFENERGY"> F  </i>
   <i type="logical" name="LSPECTRAL"> F  </i>
   <i type="logical" name="LSPECTRALGW"> F  </i>
   <i type="logical" name="LSINGLES"> F  </i>
   <i type="logical" name="LFERMIGW"> F  </i>
   <i type="logical" name="ODDONLYGW"> F  </i>
   <i type="logical" name="EVENONLYGW"> F  </i>
   <i type="int" name="NKREDLFX">     1</i>
   <i type="int" name="NKREDLFY">     1</i>
   <i type="int" name="NKREDLFZ">     1</i>
   <i type="int" name="MAXMEM">  2800</i>
   <i type="int" name="TELESCOPE">     0</i>
   <i type="int" name="NTAUPAR">    -1</i>
   <i type="int" name="NOMEGAPAR">    -1</i>
   <i name="DAMP_NEWTON">      0.80000001</i>
   <i name="LAMBDA">      1.00000000</i>
  </separator>
  <separator name="External order field" >
   <i name="OFIELD_KAPPA">      0.00000000</i>
   <v name="OFIELD_K">      0.00000000      0.00000000      0.00000000</v>
   <i name="OFIELD_Q6_NEAR">      0.00000000</i>
   <i name="OFIELD_Q6_FAR">      0.00000000</i>
   <i name="OFIELD_A">      0.00000000</i>
  </separator>
  <separator name="optional k-points parameters" >
   <i type="int" name="KPOINTS_OPT_MODE">     1</i>
   <i type="logical" name="LKPOINTS_OPT"> F  </i>
  </separator>
  <separator name="solvation model" >
   <i type="logical" name="LSOL"> F  </i>
  </separator>
 </parameters>
 <atominfo>
  <atoms>      74 </atoms>
  <types>       4 </types>
  <array name="atoms" >
   <dimension dim="1">ion</dimension>
   <field type="string">element</field>
   <field type="int">atomtype</field>
   <set>
    <rc><c>O </c><c>   1</c></rc>
    <rc><c>O </c><c>   1</c></rc>
    <rc><c>O </c><c>   1</c></rc>
    <rc><c>O </c><c>   1</c></rc>
    <rc><c>O </c><c>   1</c></rc>
    <rc><c>O </c><c>   1</c></rc>
    <rc><c>O </c><c>   1</c></rc>
    <rc><c>O </c><c>   1</c></rc>
    <rc><c>O </c><c>   1</c></rc>
    <rc><c>O </c><c>   1</c></rc>
    <rc><c>O </c><c>   1</c></rc>
    <rc><c>O </c><c>   1</c></rc>
    <rc><c>O </c><c>   1</c></rc>
    <rc><c>O </c><c>   1</c></rc>
    <rc><c>O </c><c>   1</c></rc>
    <rc><c>O </c><c>   1</c></rc>
    <rc><c>O </c><c>   1</c></rc>
    <rc><c>O </c><c>   1</c></rc>
    <rc><c>O </c><c>   1</c></rc>
    <rc><c>O </c><c>   1</c></rc>
    <rc><c>O </c><c>   1</c></rc>
    <rc><c>O </c><c>   1</c></rc>
    <rc><c>O </c><c>   1</c></rc>
    <rc><c>O </c><c>   1</c></rc>
    <rc><c>O </c><c>   1</c></rc>
    <rc><c>O </c><c>   1</c></rc>
    <rc><c>O </c><c>   1</c></rc>
    <rc><c>O </c><c>   1</c></rc>
    <rc><c>O </c><c>   1</c></rc>
    <rc><c>O </c><c>   1</c></rc>
    <rc><c>O </c><c>   1</c></rc>
    <rc><c>O </c><c>   1</c></rc>
    <rc><c>O </c><c>   1</c></rc>
    <rc><c>O </c><c>   1</c></rc>
    <rc><c>O </c><c>   1</c></rc>
    <rc><c>O </c><c>   1</c></rc>
    <rc><c>O </c><c>   1</c></rc>
    <rc><c>O </c><c>   1</c></rc>
    <rc><c>O </c><c>   1</c></rc>
    <rc><c>O </c><c>   1</c></rc>
    <rc><c>O </c><c>   1</c></rc>
    <rc><c>O </c><c>   1</c></rc>
    <rc><c>O </c><c>   1</c></rc>
    <rc><c>O </c><c>   1</c></rc>
    <rc><c>O </c><c>   1</c></rc>
    <rc><c>O </c><c>   1</c></rc>
    <rc><c>O </c><c>   1</c></rc>
    <rc><c>O </c><c>   1</c></rc>
    <rc><c>F </c><c>   2</c></rc>
    <rc><c>Al</c><c>   3</c></rc>
    <rc><c>Al</c><c>   3</c></rc>
    <rc><c>Al</c><c>   3</c></rc>
    <rc><c>Al</c><c>   3</c></rc>
    <rc><c>Al</c><c>   3</c></rc>
    <rc><c>Al</c><c>   3</c></rc>
    <rc><c>Al</c><c>   3</c></rc>
    <rc><c>Al</c><c>   3</c></rc>
    <rc><c>Al</c><c>   3</c></rc>
    <rc><c>Al</c><c>   3</c></rc>
    <rc><c>Al</c><c>   3</c></rc>
    <rc><c>Al</c><c>   3</c></rc>
    <rc><c>Al</c><c>   3</c></rc>
    <rc><c>Al</c><c>   3</c></rc>
    <rc><c>Al</c><c>   3</c></rc>
    <rc><c>Al</c><c>   3</c></rc>
    <rc><c>Al</c><c>   3</c></rc>
    <rc><c>Al</c><c>   3</c></rc>
    <rc><c>Al</c><c>   3</c></rc>
    <rc><c>Al</c><c>   3</c></rc>
    <rc><c>Al</c><c>   3</c></rc>
    <rc><c>Al</c><c>   3</c></rc>
    <rc><c>Al</c><c>   3</c></rc>
    <rc><c>Al</c><c>   3</c></rc>
    <rc><c>K </c><c>   4</c></rc>
   </set>
  </array>
  <array name="atomtypes" >
   <dimension dim="1">type</dimension>
   <field type="int">atomspertype</field>
   <field type="string">element</field>
   <field>mass</field>
   <field>valence</field>
   <field type="string">pseudopotential</field>
   <set>
    <rc><c>  48</c><c>O </c><c>     16.00000000</c><c>      6.00000000</c><c>  PAW_PBE O 08Apr2002                   </c></rc>
    <rc><c>   1</c><c>F </c><c>     18.99800000</c><c>      7.00000000</c><c>  PAW_PBE F 08Apr2002                   </c></rc>
    <rc><c>  24</c><c>Al</c><c>     26.98100000</c><c>      3.00000000</c><c>  PAW_PBE Al 04Jan2001                  </c></rc>
    <rc><c>   1</c><c>K </c><c>     39.09800000</c><c>      9.00000000</c><c>  PAW_PBE K_sv 06Sep2000                </c></rc>
   </set>
  </array>
 </atominfo>
 <structure name="initialpos" >
  <crystal>
   <varray name="basis" >
    <v>       9.61490200       0.00000000       0.00000000 </v>
    <v>       0.00000000       8.32674900       0.00000000 </v>
    <v>       0.00000000       0.00000000      21.56058900 </v>
   </varray>
   <i name="volume">   1726.15963408 </i>
   <varray name="rec_basis" >
    <v>       0.10400522       0.00000000       0.00000000 </v>
    <v>       0.00000000       0.12009489       0.00000000 </v>
    <v>       0.00000000       0.00000000       0.04638092 </v>
   </varray>
  </crystal>
  <varray name="positions" >
   <v>       0.17345600       0.98642100       0.00000000 </v>
   <v>       0.42345600       0.48642100       0.00000000 </v>
   <v>       0.09691200       0.50000000       0.10142900 </v>
   <v>       0.34691300       0.00000000       0.10142900 </v>
   <v>       0.15308800       0.33333300       0.00000000 </v>
   <v>       0.40308800       0.83333300       0.00000000 </v>
   <v>       0.17345600       0.68024600       0.00000000 </v>
   <v>       0.42345600       0.18024500       0.00000000 </v>
   <v>       0.07654400       0.15308700       0.10142900 </v>
   <v>       0.32654400       0.65308700       0.10142900 </v>
   <v>       0.07654400       0.84691300       0.10142900 </v>
   <v>       0.32654400       0.34691300       0.10142900 </v>
   <v>       0.17345600       0.31975500       0.20285800 </v>
   <v>       0.42345600       0.81975500       0.20285800 </v>
   <v>       0.11183045       0.83511208       0.30510504 </v>
   <v>       0.37145489       0.28962016       0.30303093 </v>
   <v>       0.15308700       0.66666700       0.20285800 </v>
   <v>       0.40308800       0.16666700       0.20285800 </v>
   <v>       0.17345600       0.01358000       0.20285800 </v>
   <v>       0.42345600       0.51358000       0.20285800 </v>
   <v>       0.06491250       0.48307065       0.30061145 </v>
   <v>       0.04542960       0.98154583       0.32437930 </v>
   <v>       0.15051393       0.09622838       0.33048528 </v>
   <v>       0.34261997       0.72185118       0.30243795 </v>
   <v>       0.67345600       0.98642100       0.00000000 </v>
   <v>       0.92345600       0.48642100       0.00000000 </v>
   <v>       0.59691300       0.50000000       0.10142900 </v>
   <v>       0.84691300       0.00000000       0.10142900 </v>
   <v>       0.65308800       0.33333300       0.00000000 </v>
   <v>       0.90308800       0.83333300       0.00000000 </v>
   <v>       0.67345600       0.68024500       0.00000000 </v>
   <v>       0.92345600       0.18024500       0.00000000 </v>
   <v>       0.57654400       0.15308700       0.10142900 </v>
   <v>       0.82654400       0.65308700       0.10142900 </v>
   <v>       0.57654400       0.84691300       0.10142900 </v>
   <v>       0.82654400       0.34691300       0.10142900 </v>
   <v>       0.67345600       0.31975500       0.20285800 </v>
   <v>       0.92345600       0.81975500       0.20285800 </v>
   <v>       0.60849847       0.83812800       0.30437641 </v>
   <v>       0.88700204       0.26107164       0.30465585 </v>
   <v>       0.65308800       0.66666700       0.20285800 </v>
   <v>       0.90308800       0.16666700       0.20285800 </v>
   <v>       0.67345600       0.01358000       0.20285800 </v>
   <v>       0.92345600       0.51357900       0.20285800 </v>
   <v>       0.59487928       0.48998007       0.29933400 </v>
   <v>       0.53251850       0.98352338       0.31883339 </v>
   <v>       0.62733212       0.11026480       0.32492612 </v>
   <v>       0.84844846       0.74716502       0.30291043 </v>
   <v>       0.55901786       0.47611481       0.36512990 </v>
   <v>       0.00000000       0.66666700       0.14070600 </v>
   <v>       0.25000000       0.16666700       0.14070600 </v>
   <v>       0.00000000       0.33333300       0.06215200 </v>
   <v>       0.25000000       0.83333300       0.06215200 </v>
   <v>       0.00000000       0.00000000       0.03927700 </v>
   <v>       0.25000000       0.50000000       0.03927700 </v>
   <v>       0.00000000       0.66666700       0.26500900 </v>
   <v>       0.25000000       0.16666700       0.26500900 </v>
   <v>       0.00000000       0.33333300       0.24213400 </v>
   <v>       0.25000000       0.83333300       0.24213400 </v>
   <v>       0.00000000       0.00000000       0.16358100 </v>
   <v>       0.25000000       0.50000000       0.16358100 </v>
   <v>       0.50000000       0.66666700       0.14070600 </v>
   <v>       0.75000000       0.16666700       0.14070600 </v>
   <v>       0.50000000       0.33333300       0.06215200 </v>
   <v>       0.75000000       0.83333300       0.06215200 </v>
   <v>       0.50000000       0.00000000       0.03927700 </v>
   <v>       0.75000000       0.50000000       0.03927700 </v>
   <v>       0.50000000       0.66666700       0.26500900 </v>
   <v>       0.75000000       0.16666700       0.26500900 </v>
   <v>       0.50000000       0.33333300       0.24213400 </v>
   <v>       0.75000000       0.83333300       0.24213400 </v>
   <v>       0.50000000       0.00000000       0.16358100 </v>
   <v>       0.75000000       0.50000000       0.16358100 </v>
   <v>       0.26202829       0.49428027       0.38569518 </v>
  </varray>
  <varray name="selective"  type="logical" >
   <v type="logical" >  F  F  F </v>
   <v type="logical" >  F  F  F </v>
   <v type="logical" >  F  F  F </v>
   <v type="logical" >  F  F  F </v>
   <v type="logical" >  F  F  F </v>
   <v type="logical" >  F  F  F </v>
   <v type="logical" >  F  F  F </v>
   <v type="logical" >  F  F  F </v>
   <v type="logical" >  F  F  F </v>
   <v type="logical" >  F  F  F </v>
   <v type="logical" >  F  F  F </v>
   <v type="logical" >  F  F  F </v>
   <v type="logical" >  F  F  F </v>
   <v type="logical" >  F  F  F </v>
   <v type="logical" >  T  T  T </v>
   <v type="logical" >  T  T  T </v>
   <v type="logical" >  F  F  F </v>
   <v type="logical" >  F  F  F </v>
   <v type="logical" >  F  F  F </v>
   <v type="logical" >  F  F  F </v>
   <v type="logical" >  T  T  T </v>
   <v type="logical" >  T  T  T </v>
   <v type="logical" >  T  T  T </v>
   <v type="logical" >  T  T  T </v>
   <v type="logical" >  F  F  F </v>
   <v type="logical" >  F  F  F </v>
   <v type="logical" >  F  F  F </v>
   <v type="logical" >  F  F  F </v>
   <v type="logical" >  F  F  F </v>
   <v type="logical" >  F  F  F </v>
   <v type="logical" >  F  F  F </v>
   <v type="logical" >  F  F  F </v>
   <v type="logical" >  F  F  F </v>
   <v type="logical" >  F  F  F </v>
   <v type="logical" >  F  F  F </v>
   <v type="logical" >  F  F  F </v>
   <v type="logical" >  F  F  F </v>
   <v type="logical" >  F  F  F </v>
   <v type="logical" >  T  T  T </v>
   <v type="logical" >  T  T  T </v>
   <v type="logical" >  F  F  F </v>
   <v type="logical" >  F  F  F </v>
   <v type="logical" >  F  F  F </v>
   <v type="logical" >  F  F  F </v>
   <v type="logical" >  T  T  T </v>
   <v type="logical" >  T  T  T </v>
   <v type="logical" >  T  T  T </v>
   <v type="logical" >  T  T  T </v>
   <v type="logical" >  T  T  T </v>
   <v type="logical" >  F  F  F </v>
   <v type="logical" >  F  F  F </v>
   <v type="logical" >  F  F  F </v>
   <v type="logical" >  F  F  F </v>
   <v type="logical" >  F  F  F </v>
   <v type="logical" >  F  F  F </v>
   <v type="logical" >  F  F  F </v>
   <v type="logical" >  F  F  F </v>
   <v type="logical" >  F  F  F </v>
   <v type="logical" >  F  F  F </v>
   <v type="logical" >  F  F  F </v>
   <v type="logical" >  F  F  F </v>
   <v type="logical" >  F  F  F </v>
   <v type="logical" >  F  F  F </v>
   <v type="logical" >  F  F  F </v>
   <v type="logical" >  F  F  F </v>
   <v type="logical" >  F  F  F </v>
   <v type="logical" >  F  F  F </v>
   <v type="logical" >  F  F  F </v>
   <v type="logical" >  F  F  F </v>
   <v type="logical" >  F  F  F </v>
   <v type="logical" >  F  F  F </v>
   <v type="logical" >  F  F  F </v>
   <v type="logical" >  F  F  F </v>
   <v type="logical" >  T  T  T </v>
  </varray>
  <nose>
   <v>      -3.00000000       0.00000000       0.00010000       0.00010000 </v>
  </nose>
 </structure>
 <calculation>
  <scstep>
   <time name="dav">   29.69    4.30</time>
   <time name="total">   38.93    5.86</time>
   <energy>
    <i name="alphaZ">    271.78674889 </i>
    <i name="ewald">  84071.76900683 </i>
    <i name="hartreedc">-105035.94506015 </i>
    <i name="XCdc">    783.02151472 </i>
    <i name="pawpsdc">  19356.41094894 </i>
    <i name="pawaedc"> -18675.89497373 </i>
    <i name="eentropy">     -0.08380573 </i>
    <i name="bandstr">   -677.71666445 </i>
    <i name="atom">  23472.75423047 </i>
    <i name="e_fr_energy">   3566.10194579 </i>
    <i name="e_wo_entrp">   3566.18575152 </i>
    <i name="e_0_energy">   3566.14384866 </i>
   </energy>
  </scstep>
  <scstep>
   <time name="dav">   36.13    5.17</time>
   <time name="total">   36.15    5.18</time>
   <energy>
    <i name="e_fr_energy">     -6.50154792 </i>
    <i name="e_wo_entrp">     -6.41870390 </i>
    <i name="e_0_energy">     -6.46012591 </i>
   </energy>
  </scstep>
  <scstep>
   <time name="dav">   31.98    4.57</time>
   <time name="total">   31.99    4.58</time>
   <energy>
    <i name="e_fr_energy">   -524.13403814 </i>
    <i name="e_wo_entrp">   -523.94171881 </i>
    <i name="e_0_energy">   -524.03787848 </i>
   </energy>
  </scstep>
  <scstep>
   <time name="dav">   32.67    4.73</time>
   <time name="total">   32.69    4.73</time>
   <energy>
    <i name="e_fr_energy">   -539.27187981 </i>
    <i name="e_wo_entrp">   -539.08210243 </i>
    <i name="e_0_energy">   -539.17699112 </i>
   </energy>
  </scstep>
  <scstep>
   <time name="dav">   35.64    5.11</time>
   <time name="total">   38.16    5.47</time>
   <energy>
    <i name="e_fr_energy">   -539.79511847 </i>
    <i name="e_wo_entrp">   -539.60535788 </i>
    <i name="e_0_energy">   -539.70023817 </i>
   </energy>
  </scstep>
  <scstep>
   <time name="diag">    2.15    0.31</time>
   <time name="diis">    4.08    1.63</time>
   <time name="orth">    0.11    0.06</time>
   <time name="total">   16.79    3.79</time>
   <energy>
    <i name="e_fr_energy">   -503.30384832 </i>
    <i name="e_wo_entrp">   -503.18063840 </i>
    <i name="e_0_energy">   -503.24224336 </i>
   </energy>
  </scstep>
  <scstep>
   <time name="diag">    2.15    0.31</time>
   <time name="diis">    4.26    1.73</time>
   <time name="orth">    0.11    0.06</time>
   <time name="total">   17.09    3.93</time>
   <energy>
    <i name="e_fr_energy">   -481.60293937 </i>
    <i name="e_wo_entrp">   -481.36578924 </i>
    <i name="e_0_energy">   -481.48436431 </i>
   </energy>
  </scstep>
  <scstep>
   <time name="diag">    2.01    0.31</time>
   <time name="diis">    4.25    1.72</time>
   <time name="orth">    0.11    0.06</time>
   <time name="total">   17.25    3.94</time>
   <energy>
    <i name="e_fr_energy">   -482.24936848 </i>
    <i name="e_wo_entrp">   -482.06913999 </i>
    <i name="e_0_energy">   -482.15925424 </i>
   </energy>
  </scstep>
  <scstep>
   <time name="diag">    2.14    0.31</time>
   <time name="diis">    4.25    1.73</time>
   <time name="orth">    0.11    0.06</time>
   <time name="total">   16.93    3.89</time>
   <energy>
    <i name="e_fr_energy">   -482.68760793 </i>
    <i name="e_wo_entrp">   -482.57029032 </i>
    <i name="e_0_energy">   -482.62894913 </i>
   </energy>
  </scstep>
  <scstep>
   <time name="diag">    2.14    0.31</time>
   <time name="diis">    4.20    1.74</time>
   <time name="orth">    0.11    0.06</time>
   <time name="total">   17.11    3.93</time>
   <energy>
    <i name="e_fr_energy">   -481.48465745 </i>
    <i name="e_wo_entrp">   -481.33273838 </i>
    <i name="e_0_energy">   -481.40869791 </i>
   </energy>
  </scstep>
  <scstep>
   <time name="diag">    2.13    0.31</time>
   <time name="diis">    4.29    1.77</time>
   <time name="orth">    0.11    0.06</time>
   <time name="total">   17.06    3.94</time>
   <energy>
    <i name="e_fr_energy">   -479.82080546 </i>
    <i name="e_wo_entrp">   -479.66489225 </i>
    <i name="e_0_energy">   -479.74284885 </i>
   </energy>
  </scstep>
  <scstep>
   <time name="diag">    2.14    0.31</time>
   <time name="diis">    4.59    1.88</time>
   <time name="orth">    0.11    0.06</time>
   <time name="total">   17.38    4.06</time>
   <energy>
    <i name="e_fr_energy">   -481.58053770 </i>
    <i name="e_wo_entrp">   -481.37131618 </i>
    <i name="e_0_energy">   -481.47592694 </i>
   </energy>
  </scstep>
  <scstep>
   <time name="diag">    2.14    0.31</time>
   <time name="diis">    4.54    1.86</time>
   <time name="orth">    0.11    0.06</time>
   <time name="total">   17.36    4.03</time>
   <energy>
    <i name="e_fr_energy">   -482.01957703 </i>
    <i name="e_wo_entrp">   -481.81950191 </i>
    <i name="e_0_energy">   -481.91953947 </i>
   </energy>
  </scstep>
  <scstep>
   <time name="diag">    2.13    0.31</time>
   <time name="diis">    4.27    1.72</time>
   <time name="orth">    0.11    0.06</time>
   <time name="total">   17.07    3.89</time>
   <energy>
    <i name="e_fr_energy">   -479.33787066 </i>
    <i name="e_wo_entrp">   -479.09502296 </i>
    <i name="e_0_energy">   -479.21644681 </i>
   </energy>
  </scstep>
  <scstep>
   <time name="diag">    2.14    0.31</time>
   <time name="diis">    4.43    1.80</time>
   <time name="orth">    0.11    0.06</time>
   <time name="total">   17.27    3.98</time>
   <energy>
    <i name="e_fr_energy">   -479.01749824 </i>
    <i name="e_wo_entrp">   -478.79289583 </i>
    <i name="e_0_energy">   -478.90519703 </i>
   </energy>
  </scstep>
  <scstep>
   <time name="diag">    2.14    0.31</time>
   <time name="diis">    4.42    1.80</time>
   <time name="orth">    0.11    0.06</time>
   <time name="total">   17.27    3.98</time>
   <energy>
    <i name="e_fr_energy">   -478.88787850 </i>
    <i name="e_wo_entrp">   -478.66623065 </i>
    <i name="e_0_energy">   -478.77705457 </i>
   </energy>
  </scstep>
  <scstep>
   <time name="diag">    2.14    0.31</time>
   <time name="diis">    4.39    1.78</time>
   <time name="orth">    0.11    0.06</time>
   <time name="total">   17.36    3.99</time>
   <energy>
    <i name="e_fr_energy">   -478.77603005 </i>
    <i name="e_wo_entrp">   -478.53271091 </i>
    <i name="e_0_energy">   -478.65437048 </i>
   </energy>
  </scstep>
  <scstep>
   <time name="diag">    2.14    0.31</time>
   <time name="diis">    4.25    1.71</time>
   <time name="orth">    0.11    0.06</time>
   <time name="total">   17.16    3.90</time>
   <energy>
    <i name="e_fr_energy">   -478.78978084 </i>
    <i name="e_wo_entrp">   -478.52434127 </i>
    <i name="e_0_energy">   -478.65706106 </i>
   </energy>
  </scstep>
  <scstep>
   <time name="diag">    2.14    0.31</time>
   <time name="diis">    4.50    1.83</time>
   <time name="orth">    0.11    0.06</time>
   <time name="total">   17.44    4.02</time>
   <energy>
    <i name="e_fr_energy">   -478.92573266 </i>
    <i name="e_wo_entrp">   -478.65336159 </i>
    <i name="e_0_energy">   -478.78954712 </i>
   </energy>
  </scstep>
  <scstep>
   <time name="diag">    2.14    0.31</time>
   <time name="diis">    4.40    1.79</time>
   <time name="orth">    0.11    0.06</time>
   <time name="total">   17.37    3.99</time>
   <energy>
    <i name="e_fr_energy">   -478.71849081 </i>
    <i name="e_wo_entrp">   -478.44583420 </i>
    <i name="e_0_energy">   -478.58216250 </i>
   </energy>
  </scstep>
  <scstep>
   <time name="diag">    2.14    0.31</time>
   <time name="diis">    4.24    1.71</time>
   <time name="orth">    0.11    0.06</time>
   <time name="total">   17.41    3.93</time>
   <energy>
    <i name="e_fr_energy">   -478.68679047 </i>
    <i name="e_wo_entrp">   -478.41395088 </i>
    <i name="e_0_energy">   -478.55037067 </i>
   </energy>
  </scstep>
  <scstep>
   <time name="diag">    2.14    0.31</time>
   <time name="diis">    4.40    1.79</time>
   <time name="orth">    0.11    0.06</time>
   <time name="total">   17.39    3.99</time>
   <energy>
    <i name="e_fr_energy">   -478.68827957 </i>
    <i name="e_wo_entrp">   -478.42576539 </i>
    <i name="e_0_energy">   -478.55702248 </i>
   </energy>
  </scstep>
  <scstep>
   <time name="diag">    2.14    0.31</time>
   <time name="diis">    4.18    1.68</time>
   <time name="orth">    0.11    0.06</time>
   <time name="total">   17.20    3.88</time>
   <energy>
    <i name="e_fr_energy">   -478.66824809 </i>
    <i name="e_wo_entrp">   -478.39786632 </i>
    <i name="e_0_energy">   -478.53305721 </i>
   </energy>
  </scstep>
  <scstep>
   <time name="diag">    2.14    0.31</time>
   <time name="diis">    4.29    1.73</time>
   <time name="orth">    0.11    0.06</time>
   <time name="total">   17.47    3.96</time>
   <energy>
    <i name="e_fr_energy">   -478.67034763 </i>
    <i name="e_wo_entrp">   -478.39704496 </i>
    <i name="e_0_energy">   -478.53369629 </i>
   </energy>
  </scstep>
  <scstep>
   <time name="diag">    2.14    0.31</time>
   <time name="diis">    4.39    1.79</time>
   <time name="orth">    0.11    0.06</time>
   <time name="total">   17.49    4.00</time>
   <energy>
    <i name="e_fr_energy">   -478.66861456 </i>
    <i name="e_wo_entrp">   -478.39034203 </i>
    <i name="e_0_energy">   -478.52947829 </i>
   </energy>
  </scstep>
  <scstep>
   <time name="diag">    2.15    0.31</time>
   <time name="diis">    4.67    1.93</time>
   <time name="orth">    0.11    0.06</time>
   <time name="total">   17.82    4.15</time>
   <energy>
    <i name="e_fr_energy">   -478.65737012 </i>
    <i name="e_wo_entrp">   -478.37336048 </i>
    <i name="e_0_energy">   -478.51536530 </i>
   </energy>
  </scstep>
  <scstep>
   <time name="diag">    2.14    0.31</time>
   <time name="diis">    4.57    1.86</time>
   <time name="orth">    0.11    0.05</time>
   <time name="total">   17.75    4.09</time>
   <energy>
    <i name="e_fr_energy">   -478.64057363 </i>
    <i name="e_wo_entrp">   -478.36568883 </i>
    <i name="e_0_energy">   -478.50313123 </i>
   </energy>
  </scstep>
  <scstep>
   <time name="diag">    2.14    0.31</time>
   <time name="diis">    4.64    1.91</time>
   <time name="orth">    0.11    0.06</time>
   <time name="total">   17.87    4.15</time>
   <energy>
    <i name="e_fr_energy">   -478.62717190 </i>
    <i name="e_wo_entrp">   -478.35881829 </i>
    <i name="e_0_energy">   -478.49299510 </i>
   </energy>
  </scstep>
  <scstep>
   <time name="diag">    2.14    0.31</time>
   <time name="diis">    5.23    2.21</time>
   <time name="orth">    0.11    0.06</time>
   <time name="total">   18.54    4.45</time>
   <energy>
    <i name="e_fr_energy">   -478.61374643 </i>
    <i name="e_wo_entrp">   -478.33684085 </i>
    <i name="e_0_energy">   -478.47529364 </i>
   </energy>
  </scstep>
  <scstep>
   <time name="diag">    2.14    0.31</time>
   <time name="diis">    4.58    1.88</time>
   <time name="orth">    0.11    0.06</time>
   <time name="total">   17.94    4.13</time>
   <energy>
    <i name="e_fr_energy">   -478.60776170 </i>
    <i name="e_wo_entrp">   -478.32985577 </i>
    <i name="e_0_energy">   -478.46880873 </i>
   </energy>
  </scstep>
  <scstep>
   <time name="diag">    2.15    0.31</time>
   <time name="diis">    5.50    2.36</time>
   <time name="orth">    0.11    0.06</time>
   <time name="total">   19.02    4.63</time>
   <energy>
    <i name="e_fr_energy">   -478.59194775 </i>
    <i name="e_wo_entrp">   -478.32041781 </i>
    <i name="e_0_energy">   -478.45618278 </i>
   </energy>
  </scstep>
  <scstep>
   <time name="diag">    2.14    0.31</time>
   <time name="diis">    4.75    1.97</time>
   <time name="orth">    0.11    0.06</time>
   <time name="total">   18.17    4.23</time>
   <energy>
    <i name="e_fr_energy">   -478.59052247 </i>
    <i name="e_wo_entrp">   -478.32138820 </i>
    <i name="e_0_energy">   -478.45595533 </i>
   </energy>
  </scstep>
  <scstep>
   <time name="diag">    2.11    0.30</time>
   <time name="diis">    5.06    2.12</time>
   <time name="orth">    0.11    0.06</time>
   <time name="total">   18.74    4.42</time>
   <energy>
    <i name="e_fr_energy">   -478.58562773 </i>
    <i name="e_wo_entrp">   -478.31443113 </i>
    <i name="e_0_energy">   -478.45002943 </i>
   </energy>
  </scstep>
  <scstep>
   <time name="diag">    2.01    0.31</time>
   <time name="diis">    4.39    1.78</time>
   <time name="orth">    0.11    0.06</time>
   <time name="total">   18.14    4.11</time>
   <energy>
    <i name="e_fr_energy">   -478.58689159 </i>
    <i name="e_wo_entrp">   -478.31587104 </i>
    <i name="e_0_energy">   -478.45138131 </i>
   </energy>
  </scstep>
  <scstep>
   <time name="diag">    2.13    0.31</time>
   <time name="diis">    4.17    1.67</time>
   <time name="orth">    0.11    0.06</time>
   <time name="total">   17.83    3.97</time>
   <energy>
    <i name="e_fr_energy">   -478.58723547 </i>
    <i name="e_wo_entrp">   -478.31603155 </i>
    <i name="e_0_energy">   -478.45163351 </i>
   </energy>
  </scstep>
  <scstep>
   <time name="diag">    2.12    0.31</time>
   <time name="diis">    3.64    1.40</time>
   <time name="orth">    0.11    0.06</time>
   <time name="total">   17.36    3.72</time>
   <energy>
    <i name="e_fr_energy">   -478.58925761 </i>
    <i name="e_wo_entrp">   -478.31682048 </i>
    <i name="e_0_energy">   -478.45303904 </i>
   </energy>
  </scstep>
  <scstep>
   <time name="diag">    2.13    0.31</time>
   <time name="diis">    3.35    1.25</time>
   <time name="orth">    0.11    0.06</time>
   <time name="total">   17.13    3.57</time>
   <energy>
    <i name="e_fr_energy">   -478.59150089 </i>
    <i name="e_wo_entrp">   -478.31804924 </i>
    <i name="e_0_energy">   -478.45477506 </i>
   </energy>
  </scstep>
  <scstep>
   <time name="diag">    2.14    0.31</time>
   <time name="diis">    3.32    1.24</time>
   <time name="orth">    0.11    0.06</time>
   <time name="total">   17.10    3.55</time>
   <energy>
    <i name="e_fr_energy">   -478.59441305 </i>
    <i name="e_wo_entrp">   -478.32308285 </i>
    <i name="e_0_energy">   -478.45874795 </i>
   </energy>
  </scstep>
  <scstep>
   <time name="diag">    2.13    0.30</time>
   <time name="diis">    3.10    1.13</time>
   <time name="orth">    0.11    0.06</time>
   <time name="total">   16.90    3.44</time>
   <energy>
    <i name="e_fr_energy">   -478.59526166 </i>
    <i name="e_wo_entrp">   -478.32316930 </i>
    <i name="e_0_energy">   -478.45921548 </i>
   </energy>
  </scstep>
  <scstep>
   <time name="diag">    2.14    0.31</time>
   <time name="diis">    3.56    1.36</time>
   <time name="orth">    0.11    0.06</time>
   <time name="total">   17.41    3.68</time>
   <energy>
    <i name="e_fr_energy">   -478.59883747 </i>
    <i name="e_wo_entrp">   -478.32763625 </i>
    <i name="e_0_energy">   -478.46323686 </i>
   </energy>
  </scstep>
  <scstep>
   <time name="diag">    2.06    0.30</time>
   <time name="diis">    3.44    1.30</time>
   <time name="orth">    0.11    0.06</time>
   <time name="total">   17.57    3.67</time>
   <energy>
    <i name="e_fr_energy">   -478.60008105 </i>
    <i name="e_wo_entrp">   -478.32748599 </i>
    <i name="e_0_energy">   -478.46378352 </i>
   </energy>
  </scstep>
  <scstep>
   <time name="diag">    2.12    0.30</time>
   <time name="diis">    2.89    1.03</time>
   <time name="orth">    0.11    0.06</time>
   <time name="total">   16.82    3.37</time>
   <energy>
    <i name="e_fr_energy">   -478.60073508 </i>
    <i name="e_wo_entrp">   -478.32780344 </i>
    <i name="e_0_energy">   -478.46426926 </i>
   </energy>
  </scstep>
  <scstep>
   <time name="diag">    2.13    0.30</time>
   <time name="diis">    2.83    0.99</time>
   <time name="orth">    0.11    0.06</time>
   <time name="total">   16.73    3.33</time>
   <energy>
    <i name="e_fr_energy">   -478.60153516 </i>
    <i name="e_wo_entrp">   -478.32931083 </i>
    <i name="e_0_energy">   -478.46542300 </i>
   </energy>
  </scstep>
  <scstep>
   <time name="diag">    2.14    0.31</time>
   <time name="diis">    2.78    0.98</time>
   <time name="orth">    0.11    0.06</time>
   <time name="total">   16.74    3.32</time>
   <energy>
    <i name="e_fr_energy">   -478.60221019 </i>
    <i name="e_wo_entrp">   -478.32983433 </i>
    <i name="e_0_energy">   -478.46602226 </i>
   </energy>
  </scstep>
  <scstep>
   <time name="diag">    2.14    0.31</time>
   <time name="diis">    2.77    0.96</time>
   <time name="orth">    0.11    0.06</time>
   <time name="total">   16.69    3.31</time>
   <energy>
    <i name="e_fr_energy">   -478.60269979 </i>
    <i name="e_wo_entrp">   -478.33024386 </i>
    <i name="e_0_energy">   -478.46647183 </i>
   </energy>
  </scstep>
  <scstep>
   <time name="diag">    2.14    0.31</time>
   <time name="diis">    2.64    0.91</time>
   <time name="orth">    0.11    0.06</time>
   <time name="total">   16.55    3.26</time>
   <energy>
    <i name="e_fr_energy">   -478.60299524 </i>
    <i name="e_wo_entrp">   -478.33037031 </i>
    <i name="e_0_energy">   -478.46668277 </i>
   </energy>
  </scstep>
  <scstep>
   <time name="diag">    2.13    0.31</time>
   <time name="diis">    2.62    0.89</time>
   <time name="orth">    0.11    0.06</time>
   <time name="total">   16.62    3.26</time>
   <energy>
    <i name="e_fr_energy">   -478.60312441 </i>
    <i name="e_wo_entrp">   -478.33067756 </i>
    <i name="e_0_energy">   -478.46690098 </i>
   </energy>
  </scstep>
  <scstep>
   <time name="diag">    2.13    0.31</time>
   <time name="diis">    2.51    0.83</time>
   <time name="orth">    0.11    0.06</time>
   <time name="total">   13.61    2.66</time>
   <energy>
    <i name="alphaZ">    271.78674889 </i>
    <i name="ewald">  84071.76900683 </i>
    <i name="hartreedc">-106027.13033386 </i>
    <i name="XCdc">    835.34881470 </i>
    <i name="pawpsdc">  29295.04586790 </i>
    <i name="pawaedc"> -28625.70582864 </i>
    <i name="eentropy">     -0.27245187 </i>
    <i name="bandstr">  -3772.19924312 </i>
    <i name="atom">  23472.75423047 </i>
    <i name="e_fr_energy">   -478.60318870 </i>
    <i name="e_wo_entrp">   -478.33073683 </i>
    <i name="e_0_energy">   -478.46696277 </i>
   </energy>
  </scstep>
  <structure>
   <crystal>
    <varray name="basis" >
     <v>       9.61490200       0.00000000       0.00000000 </v>
     <v>       0.00000000       8.32674900       0.00000000 </v>
     <v>       0.00000000       0.00000000      21.56058900 </v>
    </varray>
    <i name="volume">   1726.15963408 </i>
    <varray name="rec_basis" >
     <v>       0.10400522       0.00000000       0.00000000 </v>
     <v>       0.00000000       0.12009489       0.00000000 </v>
     <v>       0.00000000       0.00000000       0.04638092 </v>
    </varray>
   </crystal>
   <varray name="positions" >
    <v>       0.17345600       0.98642100       0.00000000 </v>
    <v>       0.42345600       0.48642100       0.00000000 </v>
    <v>       0.09691200       0.50000000       0.10142900 </v>
    <v>       0.34691300       0.00000000       0.10142900 </v>
    <v>       0.15308800       0.33333300       0.00000000 </v>
    <v>       0.40308800       0.83333300       0.00000000 </v>
    <v>       0.17345600       0.68024600       0.00000000 </v>
    <v>       0.42345600       0.18024500       0.00000000 </v>
    <v>       0.07654400       0.15308700       0.10142900 </v>
    <v>       0.32654400       0.65308700       0.10142900 </v>
    <v>       0.07654400       0.84691300       0.10142900 </v>
    <v>       0.32654400       0.34691300       0.10142900 </v>
    <v>       0.17345600       0.31975500       0.20285800 </v>
    <v>       0.42345600       0.81975500       0.20285800 </v>
    <v>       0.11183045       0.83511208       0.30510504 </v>
    <v>       0.37145489       0.28962016       0.30303093 </v>
    <v>       0.15308700       0.66666700       0.20285800 </v>
    <v>       0.40308800       0.16666700       0.20285800 </v>
    <v>       0.17345600       0.01358000       0.20285800 </v>
    <v>       0.42345600       0.51358000       0.20285800 </v>
    <v>       0.06491250       0.48307065       0.30061145 </v>
    <v>       0.04542960       0.98154583       0.32437930 </v>
    <v>       0.15051393       0.09622838       0.33048528 </v>
    <v>       0.34261997       0.72185118       0.30243795 </v>
    <v>       0.67345600       0.98642100       0.00000000 </v>
    <v>       0.92345600       0.48642100       0.00000000 </v>
    <v>       0.59691300       0.50000000       0.10142900 </v>
    <v>       0.84691300       0.00000000       0.10142900 </v>
    <v>       0.65308800       0.33333300       0.00000000 </v>
    <v>       0.90308800       0.83333300       0.00000000 </v>
    <v>       0.67345600       0.68024500       0.00000000 </v>
    <v>       0.92345600       0.18024500       0.00000000 </v>
    <v>       0.57654400       0.15308700       0.10142900 </v>
    <v>       0.82654400       0.65308700       0.10142900 </v>
    <v>       0.57654400       0.84691300       0.10142900 </v>
    <v>       0.82654400       0.34691300       0.10142900 </v>
    <v>       0.67345600       0.31975500       0.20285800 </v>
    <v>       0.92345600       0.81975500       0.20285800 </v>
    <v>       0.60849847       0.83812800       0.30437641 </v>
    <v>       0.88700204       0.26107164       0.30465585 </v>
    <v>       0.65308800       0.66666700       0.20285800 </v>
    <v>       0.90308800       0.16666700       0.20285800 </v>
    <v>       0.67345600       0.01358000       0.20285800 </v>
    <v>       0.92345600       0.51357900       0.20285800 </v>
    <v>       0.59487928       0.48998007       0.29933400 </v>
    <v>       0.53251850       0.98352338       0.31883339 </v>
    <v>       0.62733212       0.11026480       0.32492612 </v>
    <v>       0.84844846       0.74716502       0.30291043 </v>
    <v>       0.55901786       0.47611481       0.36512990 </v>
    <v>       0.00000000       0.66666700       0.14070600 </v>
    <v>       0.25000000       0.16666700       0.14070600 </v>
    <v>       0.00000000       0.33333300       0.06215200 </v>
    <v>       0.25000000       0.83333300       0.06215200 </v>
    <v>       0.00000000       0.00000000       0.03927700 </v>
    <v>       0.25000000       0.50000000       0.03927700 </v>
    <v>       0.00000000       0.66666700       0.26500900 </v>
    <v>       0.25000000       0.16666700       0.26500900 </v>
    <v>       0.00000000       0.33333300       0.24213400 </v>
    <v>       0.25000000       0.83333300       0.24213400 </v>
    <v>       0.00000000       0.00000000       0.16358100 </v>
    <v>       0.25000000       0.50000000       0.16358100 </v>
    <v>       0.50000000       0.66666700       0.14070600 </v>
    <v>       0.75000000       0.16666700       0.14070600 </v>
    <v>       0.50000000       0.33333300       0.06215200 </v>
    <v>       0.75000000       0.83333300       0.06215200 </v>
    <v>       0.50000000       0.00000000       0.03927700 </v>
    <v>       0.75000000       0.50000000       0.03927700 </v>
    <v>       0.50000000       0.66666700       0.26500900 </v>
    <v>       0.75000000       0.16666700       0.26500900 </v>
    <v>       0.50000000       0.33333300       0.24213400 </v>
    <v>       0.75000000       0.83333300       0.24213400 </v>
    <v>       0.50000000       0.00000000       0.16358100 </v>
    <v>       0.75000000       0.50000000       0.16358100 </v>
    <v>       0.26202829       0.49428027       0.38569518 </v>
   </varray>
  </structure>
  <varray name="forces" >
   <v>      -0.03502181      -0.59698614       0.43679404 </v>
   <v>      -0.03549107      -0.60549338       0.41071438 </v>
   <v>      -0.01418222       0.25011517       0.71345156 </v>
   <v>      -0.17886307       0.29267002       0.72326860 </v>
   <v>      -0.50699416       0.31033398       0.39035144 </v>
   <v>      -0.49967864       0.33149463       0.39542798 </v>
   <v>       0.51967699       0.28383853       0.40597434 </v>
   <v>       0.55076776       0.27232134       0.41353745 </v>
   <v>       0.33805466      -0.17798373       0.92731499 </v>
   <v>       0.28301644      -0.07646429       0.71282203 </v>
   <v>      -0.17908962      -0.12337713       0.76131108 </v>
   <v>      -0.26496074      -0.25489497       0.82725163 </v>
   <v>      -0.46728392      -0.99656001       0.93170135 </v>
   <v>       0.37246026       1.03596521      -0.68951744 </v>
   <v>       0.00432862      -0.00027158      -0.00475733 </v>
   <v>       0.00125317       0.00127200      -0.00324558 </v>
   <v>      -0.02002132       0.34363534       0.25437081 </v>
   <v>       0.46974459      -1.23830958      -0.60114689 </v>
   <v>       0.61147052       0.04172176       1.49427054 </v>
   <v>       0.26767850      -0.19490426       0.33404755 </v>
   <v>      -0.00020429       0.00349128      -0.00737276 </v>
   <v>      -0.01979319      -0.01132568       0.00194877 </v>
   <v>       0.01402890       0.01341557      -0.00122007 </v>
   <v>      -0.00083837      -0.00043627      -0.00193801 </v>
   <v>      -0.02380922      -0.59969021       0.42008458 </v>
   <v>      -0.03871922      -0.61660914       0.40804722 </v>
   <v>      -0.01820882       0.25246678       0.82637340 </v>
   <v>      -0.14589525       0.30608784       0.76701147 </v>
   <v>      -0.50068986       0.32851929       0.40932785 </v>
   <v>      -0.49942476       0.34300964       0.42651632 </v>
   <v>       0.51712348       0.28569196       0.38183313 </v>
   <v>       0.54313866       0.27091454       0.42512834 </v>
   <v>       0.40949221      -0.12482695       0.94766869 </v>
   <v>       0.23598153       0.00036367       0.65063954 </v>
   <v>      -0.12635680      -0.15372716       0.77948930 </v>
   <v>      -0.32802762      -0.34193948       0.86235447 </v>
   <v>      -0.53082162      -0.64608965       1.41721981 </v>
   <v>       0.33615464       1.06079855      -0.89112109 </v>
   <v>       0.00215673       0.00652942      -0.00191647 </v>
   <v>      -0.00807401       0.00496663      -0.00248552 </v>
   <v>      -0.10404675       0.04251145       0.61050732 </v>
   <v>       0.23201873      -1.14028059      -0.85597179 </v>
   <v>       0.76578490       0.07390527       1.32692162 </v>
   <v>      -0.82376306      -0.07779445      -0.42661686 </v>
   <v>      -0.00477499      -0.00076806       0.01751241 </v>
   <v>      -0.01115635       0.00353779      -0.00985134 </v>
   <v>      -0.00728922       0.00758458      -0.00604320 </v>
   <v>      -0.00356351       0.00104613      -0.00592475 </v>
   <v>       0.00219855       0.00117664      -0.01488066 </v>
   <v>      -0.09854716      -0.24996120      -0.58686219 </v>
   <v>       0.26408600       0.19974349      -1.12440403 </v>
   <v>       0.01053189       0.07041647      -1.82538774 </v>
   <v>       0.05725013      -0.04975540      -1.83975647 </v>
   <v>       0.00041140      -0.00040611      -0.92533051 </v>
   <v>      -0.01577171       0.01199005      -0.82649624 </v>
   <v>      -0.72692061      -0.73055970       0.76288879 </v>
   <v>       1.52013112       1.92299095      -0.90708596 </v>
   <v>      -0.98400805       1.81381526       0.98590857 </v>
   <v>       0.84155463      -2.32260990      -0.21210107 </v>
   <v>      -0.37656760      -0.19032711      -0.86598455 </v>
   <v>       0.07482485       0.22730013      -0.30433414 </v>
   <v>      -0.16667976       0.01696065      -0.75053830 </v>
   <v>       0.21548360       0.03921347      -1.29421590 </v>
   <v>      -0.03393167       0.02919781      -1.84943858 </v>
   <v>       0.00019197      -0.09110383      -1.85855257 </v>
   <v>      -0.01950483      -0.01894850      -0.88400459 </v>
   <v>       0.00151869       0.04158773      -0.85328595 </v>
   <v>      -1.03464886       0.79568893      -0.03681795 </v>
   <v>       1.06631612       1.26728449      -0.77741860 </v>
   <v>      -2.05733281       0.44775657       0.60456022 </v>
   <v>       0.33125260      -1.59767314      -0.55897738 </v>
   <v>      -0.49374252      -0.19340401      -0.82628932 </v>
   <v>       0.54548114       0.36607185      -0.53514026 </v>
   <v>      -0.00086490       0.00407873       0.00188049 </v>
  </varray>
  <varray name="stress" >
   <v>      -3.61585677      -1.01830714      -0.59057257 </v>
   <v>      -1.01830724      -5.23797387       2.97967153 </v>
   <v>      -0.59057274       2.97967148      -2.41444940 </v>
  </varray>
  <energy>
   <i name="e_fr_energy">   -478.60318870 </i>
   <i name="e_wo_entrp">   -478.33073683 </i>
   <i name="e_0_energy">   -478.46696277 </i>
  </energy>
  <time name="totalsc">  966.82  201.67</time>
 </calculation>
 <calculation>
  <scstep>
   <time name="dav">   29.15    4.20</time>
   <time name="total">   40.36    6.01</time>
   <energy>
    <i name="alphaZ">    271.78674889 </i>
    <i name="ewald">  84073.81520848 </i>
    <i name="hartreedc">-106029.23171992 </i>
    <i name="XCdc">    835.34722416 </i>
    <i name="pawpsdc">  29295.06195163 </i>
    <i name="pawaedc"> -28625.72167795 </i>
    <i name="eentropy">     -0.27249389 </i>
    <i name="bandstr">  -3772.14265802 </i>
    <i name="atom">  23472.75423047 </i>
    <i name="e_fr_energy">   -478.60318615 </i>
    <i name="e_wo_entrp">   -478.33069226 </i>
    <i name="e_0_energy">   -478.46693921 </i>
   </energy>
  </scstep>
  <scstep>
   <time name="diag">    2.13    0.31</time>
   <time name="diis">    3.92    1.54</time>
   <time name="orth">    0.11    0.05</time>
   <time name="total">   16.73    3.73</time>
   <energy>
    <i name="e_fr_energy">   -478.60519029 </i>
    <i name="e_wo_entrp">   -478.33346637 </i>
    <i name="e_0_energy">   -478.46932833 </i>
   </energy>
  </scstep>
  <scstep>
   <time name="diag">    2.05    0.31</time>
   <time name="diis">    3.15    1.15</time>
   <time name="orth">    0.11    0.06</time>
   <time name="total">   15.89    3.34</time>
   <energy>
    <i name="e_fr_energy">   -478.60261322 </i>
    <i name="e_wo_entrp">   -478.33006217 </i>
    <i name="e_0_energy">   -478.46633769 </i>
   </energy>
  </scstep>
  <scstep>
   <time name="diag">    2.15    0.31</time>
   <time name="diis">    2.89    1.02</time>
   <time name="orth">    0.11    0.06</time>
   <time name="total">   15.69    3.20</time>
   <energy>
    <i name="e_fr_energy">   -478.60323184 </i>
    <i name="e_wo_entrp">   -478.33140768 </i>
    <i name="e_0_energy">   -478.46731976 </i>
   </energy>
  </scstep>
  <scstep>
   <time name="diag">    2.14    0.31</time>
   <time name="diis">    2.80    0.98</time>
   <time name="orth">    0.11    0.06</time>
   <time name="total">   13.98    2.82</time>
   <energy>
    <i name="alphaZ">    271.78674889 </i>
    <i name="ewald">  84073.81520848 </i>
    <i name="hartreedc">-106029.25159292 </i>
    <i name="XCdc">    835.34765519 </i>
    <i name="pawpsdc">  29295.66905342 </i>
    <i name="pawaedc"> -28626.32967147 </i>
    <i name="eentropy">     -0.27299935 </i>
    <i name="bandstr">  -3772.12186249 </i>
    <i name="atom">  23472.75423047 </i>
    <i name="e_fr_energy">   -478.60322978 </i>
    <i name="e_wo_entrp">   -478.33023043 </i>
    <i name="e_0_energy">   -478.46673010 </i>
   </energy>
  </scstep>
  <structure>
   <crystal>
    <varray name="basis" >
     <v>       9.61490200       0.00000000       0.00000000 </v>
     <v>       0.00000000       8.32674900       0.00000000 </v>
     <v>       0.00000000       0.00000000      21.56058900 </v>
    </varray>
    <i name="volume">   1726.15963408 </i>
    <varray name="rec_basis" >
     <v>       0.10400522       0.00000000       0.00000000 </v>
     <v>       0.00000000       0.12009489       0.00000000 </v>
     <v>       0.00000000       0.00000000       0.04638092 </v>
    </varray>
   </crystal>
   <varray name="positions" >
    <v>       0.17345600       0.98642100       0.00000000 </v>
    <v>       0.42345600       0.48642100       0.00000000 </v>
    <v>       0.09691200       0.50000000       0.10142900 </v>
    <v>       0.34691300       0.00000000       0.10142900 </v>
    <v>       0.15308800       0.33333300       0.00000000 </v>
    <v>       0.40308800       0.83333300       0.00000000 </v>
    <v>       0.17345600       0.68024600       0.00000000 </v>
    <v>       0.42345600       0.18024500       0.00000000 </v>
    <v>       0.07654400       0.15308700       0.10142900 </v>
    <v>       0.32654400       0.65308700       0.10142900 </v>
    <v>       0.07654400       0.84691300       0.10142900 </v>
    <v>       0.32654400       0.34691300       0.10142900 </v>
    <v>       0.17345600       0.31975500       0.20285800 </v>
    <v>       0.42345600       0.81975500       0.20285800 </v>
    <v>       0.11185217       0.83511051       0.30509439 </v>
    <v>       0.37146118       0.28962752       0.30302366 </v>
    <v>       0.15308700       0.66666700       0.20285800 </v>
    <v>       0.40308800       0.16666700       0.20285800 </v>
    <v>       0.17345600       0.01358000       0.20285800 </v>
    <v>       0.42345600       0.51358000       0.20285800 </v>
    <v>       0.06491148       0.48309088       0.30059495 </v>
    <v>       0.04533028       0.98148021       0.32438366 </v>
    <v>       0.15058431       0.09630610       0.33048255 </v>
    <v>       0.34261576       0.72184865       0.30243361 </v>
    <v>       0.67345600       0.98642100       0.00000000 </v>
    <v>       0.92345600       0.48642100       0.00000000 </v>
    <v>       0.59691300       0.50000000       0.10142900 </v>
    <v>       0.84691300       0.00000000       0.10142900 </v>
    <v>       0.65308800       0.33333300       0.00000000 </v>
    <v>       0.90308800       0.83333300       0.00000000 </v>
    <v>       0.67345600       0.68024500       0.00000000 </v>
    <v>       0.92345600       0.18024500       0.00000000 </v>
    <v>       0.57654400       0.15308700       0.10142900 </v>
    <v>       0.82654400       0.65308700       0.10142900 </v>
    <v>       0.57654400       0.84691300       0.10142900 </v>
    <v>       0.82654400       0.34691300       0.10142900 </v>
    <v>       0.67345600       0.31975500       0.20285800 </v>
    <v>       0.92345600       0.81975500       0.20285800 </v>
    <v>       0.60850930       0.83816583       0.30437212 </v>
    <v>       0.88696153       0.26110042       0.30465029 </v>
    <v>       0.65308800       0.66666700       0.20285800 </v>
    <v>       0.90308800       0.16666700       0.20285800 </v>
    <v>       0.67345600       0.01358000       0.20285800 </v>
    <v>       0.92345600       0.51357900       0.20285800 </v>
    <v>       0.59485532       0.48997562       0.29937319 </v>
    <v>       0.53246253       0.98354388       0.31881135 </v>
    <v>       0.62729554       0.11030874       0.32491260 </v>
    <v>       0.84843058       0.74717108       0.30289717 </v>
    <v>       0.55902890       0.47612163       0.36509660 </v>
    <v>       0.00000000       0.66666700       0.14070600 </v>
    <v>       0.25000000       0.16666700       0.14070600 </v>
    <v>       0.00000000       0.33333300       0.06215200 </v>
    <v>       0.25000000       0.83333300       0.06215200 </v>
    <v>       0.00000000       0.00000000       0.03927700 </v>
    <v>       0.25000000       0.50000000       0.03927700 </v>
    <v>       0.00000000       0.66666700       0.26500900 </v>
    <v>       0.25000000       0.16666700       0.26500900 </v>
    <v>       0.00000000       0.33333300       0.24213400 </v>
    <v>       0.25000000       0.83333300       0.24213400 </v>
    <v>       0.00000000       0.00000000       0.16358100 </v>
    <v>       0.25000000       0.50000000       0.16358100 </v>
    <v>       0.50000000       0.66666700       0.14070600 </v>
    <v>       0.75000000       0.16666700       0.14070600 </v>
    <v>       0.50000000       0.33333300       0.06215200 </v>
    <v>       0.75000000       0.83333300       0.06215200 </v>
    <v>       0.50000000       0.00000000       0.03927700 </v>
    <v>       0.75000000       0.50000000       0.03927700 </v>
    <v>       0.50000000       0.66666700       0.26500900 </v>
    <v>       0.75000000       0.16666700       0.26500900 </v>
    <v>       0.50000000       0.33333300       0.24213400 </v>
    <v>       0.75000000       0.83333300       0.24213400 </v>
    <v>       0.50000000       0.00000000       0.16358100 </v>
    <v>       0.75000000       0.50000000       0.16358100 </v>
    <v>       0.26202395       0.49430390       0.38569939 </v>
   </varray>
  </structure>
  <varray name="forces" >
   <v>      -0.03447703      -0.59681375       0.43577012 </v>
   <v>      -0.03441706      -0.60500223       0.40811811 </v>
   <v>      -0.01410768       0.24979377       0.71208692 </v>
   <v>      -0.17851095       0.29235759       0.72204772 </v>
   <v>      -0.50670419       0.30974270       0.38893652 </v>
   <v>      -0.49981201       0.33044540       0.39349178 </v>
   <v>       0.51929003       0.28408029       0.40429007 </v>
   <v>       0.55000127       0.27281125       0.41170650 </v>
   <v>       0.33808313      -0.17783318       0.92584781 </v>
   <v>       0.28332140      -0.07639187       0.71139196 </v>
   <v>      -0.17909278      -0.12311002       0.75976273 </v>
   <v>      -0.26461318      -0.25494969       0.82607297 </v>
   <v>      -0.46608410      -0.99691014       0.93066232 </v>
   <v>       0.37195273       1.03530776      -0.68855390 </v>
   <v>      -0.01272039       0.01544008       0.00619691 </v>
   <v>       0.00242424       0.00426999       0.00465760 </v>
   <v>      -0.02016814       0.34495693       0.25087763 </v>
   <v>       0.47025786      -1.23777251      -0.60084967 </v>
   <v>       0.61151702       0.04211628       1.49204283 </v>
   <v>       0.26859360      -0.19567568       0.33481528 </v>
   <v>      -0.00271831       0.01314644      -0.01892703 </v>
   <v>       0.03096071       0.00193322       0.00331036 </v>
   <v>      -0.02793064      -0.01618085       0.00316976 </v>
   <v>      -0.00601026       0.00188771       0.00808355 </v>
   <v>      -0.02354972      -0.59935808       0.41889326 </v>
   <v>      -0.03863104      -0.61649225       0.40737012 </v>
   <v>      -0.01837517       0.25220002       0.82525879 </v>
   <v>      -0.14597428       0.30543046       0.76578641 </v>
   <v>      -0.50081724       0.32802302       0.40790626 </v>
   <v>      -0.49917662       0.34297226       0.42556200 </v>
   <v>       0.51680675       0.28558715       0.38099794 </v>
   <v>       0.54276381       0.27094338       0.42360377 </v>
   <v>       0.40917691      -0.12481439       0.94667687 </v>
   <v>       0.23582877       0.00054096       0.64953480 </v>
   <v>      -0.12652539      -0.15364149       0.77827889 </v>
   <v>      -0.32796744      -0.34157848       0.86101120 </v>
   <v>      -0.53102456      -0.64535723       1.41730763 </v>
   <v>       0.33612248       1.06089035      -0.89207229 </v>
   <v>      -0.00358739       0.00594689       0.00073295 </v>
   <v>      -0.02213434       0.00153195      -0.00810563 </v>
   <v>      -0.10423970       0.04233767       0.61046678 </v>
   <v>       0.23152460      -1.14204481      -0.86187086 </v>
   <v>       0.76603560       0.07404982       1.32634764 </v>
   <v>      -0.82471214      -0.07770282      -0.42779945 </v>
   <v>       0.00218413       0.00313176      -0.02052210 </v>
   <v>      -0.00252962       0.00574670      -0.00966672 </v>
   <v>      -0.01183745       0.00575803      -0.00568307 </v>
   <v>      -0.00038780      -0.00097909      -0.00135541 </v>
   <v>      -0.00603289      -0.00175386       0.02036237 </v>
   <v>      -0.09762883      -0.25009656      -0.58478512 </v>
   <v>       0.26299927       0.19966401      -1.12228749 </v>
   <v>       0.01014897       0.07051566      -1.82454267 </v>
   <v>       0.05675731      -0.04976801      -1.83863979 </v>
   <v>       0.00038016      -0.00083542      -0.92474547 </v>
   <v>      -0.01644652       0.01191871      -0.82537683 </v>
   <v>      -0.72172566      -0.74920392       0.76785554 </v>
   <v>       1.51814328       1.92025574      -0.91559489 </v>
   <v>      -0.98759773       1.81799453       1.00538894 </v>
   <v>       0.83790060      -2.31498955      -0.22456731 </v>
   <v>      -0.37695128      -0.18796891      -0.86365954 </v>
   <v>       0.07331231       0.22768532      -0.30186023 </v>
   <v>      -0.16558124       0.01636445      -0.74962490 </v>
   <v>       0.21736879       0.03936197      -1.29135779 </v>
   <v>      -0.03333049       0.02898938      -1.84795545 </v>
   <v>       0.00085634      -0.09120353      -1.85823391 </v>
   <v>      -0.01871340      -0.01888083      -0.88309681 </v>
   <v>       0.00210850       0.04160840      -0.85308369 </v>
   <v>      -1.01755108       0.78948539      -0.04080514 </v>
   <v>       1.07890856       1.27202132      -0.77156617 </v>
   <v>      -2.05068216       0.44885409       0.60214320 </v>
   <v>       0.32804537      -1.59567005      -0.56231838 </v>
   <v>      -0.49258506      -0.19230192      -0.82479678 </v>
   <v>       0.54535279       0.36601994      -0.53311469 </v>
   <v>      -0.00546430       0.00116245       0.00259434 </v>
  </varray>
  <varray name="stress" >
   <v>      -3.65446973      -1.04933178      -0.64298908 </v>
   <v>      -1.04933183      -5.28474625       2.93390897 </v>
   <v>      -0.64298905       2.93390897      -2.33545070 </v>
  </varray>
  <energy>
   <i name="e_fr_energy">   -478.60322978 </i>
   <i name="e_wo_entrp">   -478.33023043 </i>
   <i name="e_0_energy">   -478.46673010 </i>
  </energy>
  <time name="totalsc">  145.83   29.12</time>
 </calculation>
 <calculation>
  <scstep>
   <time name="dav">   29.24    4.20</time>
   <time name="total">   39.82    6.02</time>
   <energy>
    <i name="alphaZ">    271.78674889 </i>
    <i name="ewald">  84073.05684624 </i>
    <i name="hartreedc">-106028.48549192 </i>
    <i name="XCdc">    835.34838881 </i>
    <i name="pawpsdc">  29295.64334390 </i>
    <i name="pawaedc"> -28626.30405996 </i>
    <i name="eentropy">     -0.27245151 </i>
    <i name="bandstr">  -3772.13080718 </i>
    <i name="atom">  23472.75423047 </i>
    <i name="e_fr_energy">   -478.60325227 </i>
    <i name="e_wo_entrp">   -478.33080076 </i>
    <i name="e_0_energy">   -478.46702651 </i>
   </energy>
  </scstep>
  <scstep>
   <time name="diag">    2.13    0.31</time>
   <time name="diis">    3.02    1.16</time>
   <time name="orth">    0.11    0.06</time>
   <time name="total">   16.14    3.39</time>
   <energy>
    <i name="e_fr_energy">   -478.60392029 </i>
    <i name="e_wo_entrp">   -478.33180434 </i>
    <i name="e_0_energy">   -478.46786231 </i>
   </energy>
  </scstep>
  <scstep>
   <time name="diag">    2.15    0.31</time>
   <time name="diis">    2.92    1.03</time>
   <time name="orth">    0.11    0.05</time>
   <time name="total">   15.93    3.25</time>
   <energy>
    <i name="e_fr_energy">   -478.60304785 </i>
    <i name="e_wo_entrp">   -478.33053089 </i>
    <i name="e_0_energy">   -478.46678937 </i>
   </energy>
  </scstep>
  <scstep>
[...]
       <r>   -23.9379     0.0000     8.0000 </r>
       <r>   -23.8024     0.0000     8.0000 </r>
       <r>   -23.6668     0.0000     8.0000 </r>
       <r>   -23.5312     0.0000     8.0000 </r>
       <r>   -23.3957     0.0000     8.0000 </r>
       <r>   -23.2601     0.0000     8.0000 </r>
       <r>   -23.1246     0.0000     8.0000 </r>
       <r>   -22.9890     0.0000     8.0000 </r>
       <r>   -22.8534     0.0297     8.0040 </r>
       <r>   -22.7179     1.3790     8.1910 </r>
       <r>   -22.5823     7.0703     9.1494 </r>
       <r>   -22.4468     8.4925    10.3007 </r>
       <r>   -22.3112    15.6084    12.4165 </r>
       <r>   -22.1756    20.0111    15.1292 </r>
       <r>   -22.0401     9.5170    16.4193 </r>
       <r>   -21.9045     8.8220    17.6153 </r>
       <r>   -21.7690    10.8975    19.0925 </r>
       <r>   -21.6334     8.1698    20.2000 </r>
       <r>   -21.4978    13.9799    22.0951 </r>
       <r>   -21.3623    22.9550    25.2069 </r>
       <r>   -21.2267    22.0600    28.1973 </r>
       <r>   -21.0912    21.0981    31.0574 </r>
       <r>   -20.9556    18.0357    33.5023 </r>
       <r>   -20.8201    22.5169    36.5547 </r>
       <r>   -20.6845    23.4976    39.7400 </r>
       <r>   -20.5489    25.2913    43.1684 </r>
       <r>   -20.4134    27.4318    46.8871 </r>
       <r>   -20.2778    29.1672    50.8410 </r>
       <r>   -20.1423    43.7091    56.7662 </r>
       <r>   -20.0067    32.8397    61.2179 </r>
       <r>   -19.8711     5.6711    61.9866 </r>
       <r>   -19.7356     0.3499    62.0341 </r>
       <r>   -19.6000     4.3630    62.6255 </r>
       <r>   -19.4645    11.5536    64.1917 </r>
       <r>   -19.3289    17.8437    66.6106 </r>
       <r>   -19.1933    28.2942    70.4462 </r>
       <r>   -19.0578    11.4145    71.9935 </r>
       <r>   -18.9222    12.5552    73.6955 </r>
       <r>   -18.7867    43.3985    79.5785 </r>
       <r>   -18.6511    64.1045    88.2685 </r>
       <r>   -18.5155    49.0428    94.9167 </r>
       <r>   -18.3800     7.8658    95.9830 </r>
       <r>   -18.2444     0.1252    96.0000 </r>
       <r>   -18.1089     0.0001    96.0000 </r>
       <r>   -17.9733     0.0000    96.0000 </r>
       <r>   -17.8377     0.0000    96.0000 </r>
       <r>   -17.7022     0.0012    96.0002 </r>
       <r>   -17.5666     0.4877    96.0663 </r>
       <r>   -17.4311     9.5187    97.3566 </r>
       <r>   -17.2955    16.4521    99.5869 </r>
       <r>   -17.1599     3.0117    99.9951 </r>
       <r>   -17.0244     0.0358   100.0000 </r>
       <r>   -16.8888     0.0000   100.0000 </r>
       <r>   -16.7533     0.0000   100.0000 </r>
       <r>   -16.6177     0.0000   100.0000 </r>
       <r>   -16.4822     0.0000   100.0000 </r>
       <r>   -16.3466     0.0000   100.0000 </r>
       <r>   -16.2110     0.0000   100.0000 </r>
       <r>   -16.0755     0.0000   100.0000 </r>
       <r>   -15.9399     0.0000   100.0000 </r>
       <r>   -15.8044     0.0000   100.0000 </r>
       <r>   -15.6688     0.0000   100.0000 </r>
       <r>   -15.5332     0.0000   100.0000 </r>
       <r>   -15.3977     0.0000   100.0000 </r>
       <r>   -15.2621     0.0000   100.0000 </r>
       <r>   -15.1266     0.0000   100.0000 </r>
       <r>   -14.9910     0.0000   100.0000 </r>
       <r>   -14.8554     0.0000   100.0000 </r>
       <r>   -14.7199     0.0000   100.0000 </r>
       <r>   -14.5843     0.0000   100.0000 </r>
       <r>   -14.4488     0.0000   100.0000 </r>
       <r>   -14.3132     0.0001   100.0000 </r>
       <r>   -14.1776     0.1252   100.0170 </r>
       <r>   -14.0421     8.3671   101.1512 </r>
       <r>   -13.9065    29.0243   105.0857 </r>
       <r>   -13.7710     6.6685   105.9897 </r>
       <r>   -13.6354     0.0759   106.0000 </r>
       <r>   -13.4998     0.0000   106.0000 </r>
       <r>   -13.3643     0.0000   106.0000 </r>
       <r>   -13.2287     0.0000   106.0000 </r>
       <r>   -13.0932     0.0000   106.0000 </r>
       <r>   -12.9576     0.0000   106.0000 </r>
       <r>   -12.8220     0.0000   106.0000 </r>
       <r>   -12.6865     0.0000   106.0000 </r>
       <r>   -12.5509     0.0000   106.0000 </r>
       <r>   -12.4154     0.0000   106.0000 </r>
       <r>   -12.2798     0.0000   106.0000 </r>
       <r>   -12.1442     0.0000   106.0000 </r>
       <r>   -12.0087     0.0000   106.0000 </r>
       <r>   -11.8731     0.0000   106.0000 </r>
       <r>   -11.7376     0.0000   106.0000 </r>
       <r>   -11.6020     0.0180   106.0024 </r>
       <r>   -11.4665     2.2397   106.3060 </r>
       <r>   -11.3309    16.2392   108.5074 </r>
       <r>   -11.1953    10.4716   109.9270 </r>
       <r>   -11.0598     0.5375   109.9998 </r>
       <r>   -10.9242     0.0031   110.0002 </r>
       <r>   -10.7887     0.5668   110.0771 </r>
       <r>   -10.6531     7.5961   111.1068 </r>
       <r>   -10.5175     6.2824   111.9584 </r>
       <r>   -10.3820     0.3066   112.0000 </r>
       <r>   -10.2464     0.2684   112.0364 </r>
       <r>   -10.1109     6.8704   112.9677 </r>
       <r>    -9.9753    24.2987   116.2617 </r>
       <r>    -9.8397    30.9434   120.4563 </r>
       <r>    -9.7042    21.8272   123.4152 </r>
       <r>    -9.5686    17.8003   125.8282 </r>
       <r>    -9.4331    15.2229   127.8918 </r>
       <r>    -9.2975    19.6366   130.5537 </r>
       <r>    -9.1619    29.8171   134.5957 </r>
       <r>    -9.0264    30.2800   138.7005 </r>
       <r>    -8.8908    35.7890   143.5520 </r>
       <r>    -8.7553    30.9107   147.7422 </r>
       <r>    -8.6197    22.6959   150.8189 </r>
       <r>    -8.4841    14.7328   152.8160 </r>
       <r>    -8.3486    17.7436   155.2214 </r>
       <r>    -8.2130    20.1954   157.9590 </r>
       <r>    -8.0775    21.7681   160.9099 </r>
       <r>    -7.9419    27.6295   164.6553 </r>
       <r>    -7.8063    29.5140   168.6562 </r>
       <r>    -7.6708    19.9389   171.3591 </r>
       <r>    -7.5352    12.5906   173.0659 </r>
       <r>    -7.3997    18.2241   175.5364 </r>
       <r>    -7.2641    23.3892   178.7070 </r>
       <r>    -7.1286    30.0042   182.7743 </r>
       <r>    -6.9930    31.6605   187.0662 </r>
       <r>    -6.8574    32.0357   191.4090 </r>
       <r>    -6.7219    37.4830   196.4901 </r>
       <r>    -6.5863    44.7925   202.5622 </r>
       <r>    -6.4508    44.4328   208.5855 </r>
       <r>    -6.3152    40.2502   214.0418 </r>
       <r>    -6.1796    43.9738   220.0028 </r>
       <r>    -6.0441    45.1663   226.1255 </r>
       <r>    -5.9085    43.9864   232.0883 </r>
       <r>    -5.7730    37.9290   237.2300 </r>
       <r>    -5.6374    33.7455   241.8045 </r>
       <r>    -5.5018    40.7691   247.3311 </r>
       <r>    -5.3663    39.4793   252.6829 </r>
       <r>    -5.2307    43.3625   258.5611 </r>
       <r>    -5.0952    45.4068   264.7164 </r>
       <r>    -4.9596    49.3752   271.4097 </r>
       <r>    -4.8240    50.2977   278.2280 </r>
       <r>    -4.6885    58.3218   286.1341 </r>
       <r>    -4.5529    48.9288   292.7668 </r>
       <r>    -4.4174    40.4075   298.2445 </r>
       <r>    -4.2818    43.0431   304.0793 </r>
       <r>    -4.1462    47.9527   310.5798 </r>
       <r>    -4.0107    38.8864   315.8512 </r>
       <r>    -3.8751    22.3231   318.8773 </r>
       <r>    -3.7396    30.0280   322.9479 </r>
       <r>    -3.6040    53.1647   330.1549 </r>
       <r>    -3.4684    60.0338   338.2930 </r>
       <r>    -3.3329    68.6376   347.5975 </r>
       <r>    -3.1973    75.3984   357.8184 </r>
       <r>    -3.0618    67.9228   367.0260 </r>
       <r>    -2.9262    60.8616   375.2764 </r>
       <r>    -2.7907    42.5154   381.0397 </r>
       <r>    -2.6551    35.0037   385.7848 </r>
       <r>    -2.5195    22.9977   388.9024 </r>
       <r>    -2.3840     7.5251   389.9225 </r>
       <r>    -2.2484     0.5688   389.9996 </r>
       <r>    -2.1129     0.0030   390.0000 </r>
       <r>    -1.9773     0.0000   390.0000 </r>
       <r>    -1.8417     0.0000   390.0000 </r>
       <r>    -1.7062     0.0000   390.0000 </r>
       <r>    -1.5706     0.0000   390.0000 </r>
       <r>    -1.4351     0.0000   390.0000 </r>
       <r>    -1.2995     0.0000   390.0000 </r>
       <r>    -1.1639     0.0000   390.0000 </r>
       <r>    -1.0284     0.0000   390.0000 </r>
       <r>    -0.8928     0.0000   390.0000 </r>
       <r>    -0.7573     0.0109   390.0015 </r>
       <r>    -0.6217     1.5143   390.2068 </r>
       <r>    -0.4861     9.4388   391.4863 </r>
       <r>    -0.3506     3.7143   391.9898 </r>
       <r>    -0.2150     0.0753   392.0000 </r>
       <r>    -0.0795     0.0001   392.0000 </r>
       <r>     0.0561     0.0000   392.0000 </r>
       <r>     0.1917     0.0000   392.0000 </r>
       <r>     0.3272     0.0214   392.0029 </r>
       <r>     0.4628     1.6094   392.2211 </r>
       <r>     0.5983     8.5601   393.3815 </r>
       <r>     0.7339     4.8423   394.0379 </r>
       <r>     0.8695     7.2675   395.0231 </r>
       <r>     1.0050     6.7909   395.9436 </r>
       <r>     1.1406     0.4810   396.0088 </r>
       <r>     1.2761     0.9235   396.1340 </r>
       <r>     1.4117     4.3292   396.7209 </r>
       <r>     1.5472    12.3888   398.4003 </r>
       <r>     1.6828     9.7503   399.7220 </r>
       <r>     1.8184     2.0057   399.9939 </r>
       <r>     1.9539     0.4978   400.0614 </r>
       <r>     2.0895     2.7156   400.4295 </r>
       <r>     2.2250     6.9009   401.3650 </r>
       <r>     2.3606     5.7975   402.1509 </r>
       <r>     2.4962     8.5195   403.3058 </r>
       <r>     2.6317     5.0518   403.9906 </r>
       <r>     2.7673     5.2125   404.6972 </r>
       <r>     2.9028    11.2828   406.2267 </r>
       <r>     3.0384    10.5921   407.6626 </r>
       <r>     3.1740     2.5878   408.0134 </r>
       <r>     3.3095     2.3572   408.3329 </r>
       <r>     3.4451     6.7482   409.2477 </r>
       <r>     3.5806     4.6695   409.8807 </r>
       <r>     3.7162     1.4612   410.0788 </r>
       <r>     3.8518     1.8503   410.3296 </r>
       <r>     3.9873     3.4446   410.7966 </r>
       <r>     4.1229     5.1905   411.5002 </r>
       <r>     4.2584     5.5426   412.2516 </r>
       <r>     4.3940     6.9874   413.1988 </r>
       <r>     4.5296     7.3327   414.1928 </r>
       <r>     4.6651    10.1018   415.5622 </r>
       <r>     4.8007     8.7540   416.7489 </r>
       <r>     4.9362    10.2013   418.1317 </r>
       <r>     5.0718    11.1633   419.6450 </r>
       <r>     5.2074    15.0115   421.6800 </r>
       <r>     5.3429    19.5172   424.3257 </r>
       <r>     5.4785    20.0630   427.0454 </r>
       <r>     5.6140    17.8654   429.4673 </r>
       <r>     5.7496    23.3148   432.6278 </r>
       <r>     5.8852    34.4368   437.2960 </r>
       <r>     6.0207    33.7363   441.8693 </r>
       <r>     6.1563    28.1591   445.6866 </r>
       <r>     6.2918    22.8309   448.7815 </r>
       <r>     6.4274    15.7110   450.9113 </r>
       <r>     6.5629     7.4388   451.9197 </r>
       <r>     6.6985     0.5893   451.9996 </r>
       <r>     6.8341     0.0032   452.0000 </r>
       <r>     6.9696     0.0000   452.0000 </r>
       <r>     7.1052     0.0000   452.0000 </r>
       <r>     7.2407     0.0000   452.0000 </r>
       <r>     7.3763     0.0000   452.0000 </r>
       <r>     7.5119     0.0000   452.0000 </r>
       <r>     7.6474     0.0000   452.0000 </r>
       <r>     7.7830     0.0000   452.0000 </r>
       <r>     7.9185     0.0000   452.0000 </r>
       <r>     8.0541     0.0000   452.0000 </r>
       <r>     8.1897     0.0000   452.0000 </r>
       <r>     8.3252     0.0000   452.0000 </r>
      </set>
     </set>
    </array>
   </total>
  </dos>
 </calculation>
 <structure name="finalpos" >
  <crystal>
   <varray name="basis" >
    <v>       9.61490200       0.00000000       0.00000000 </v>
    <v>       0.00000000       8.32674900       0.00000000 </v>
    <v>       0.00000000       0.00000000      21.56058900 </v>
   </varray>
   <i name="volume">   1726.15963408 </i>
   <varray name="rec_basis" >
    <v>       0.10400522       0.00000000       0.00000000 </v>
    <v>       0.00000000       0.12009489       0.00000000 </v>
    <v>       0.00000000       0.00000000       0.04638092 </v>
   </varray>
  </crystal>
  <varray name="positions" >
   <v>       0.17345600       0.98642100       0.00000000 </v>
   <v>       0.42345600       0.48642100       0.00000000 </v>
   <v>       0.09691200       0.50000000       0.10142900 </v>
   <v>       0.34691300       0.00000000       0.10142900 </v>
   <v>       0.15308800       0.33333300       0.00000000 </v>
   <v>       0.40308800       0.83333300       0.00000000 </v>
   <v>       0.17345600       0.68024600       0.00000000 </v>
   <v>       0.42345600       0.18024500       0.00000000 </v>
   <v>       0.07654400       0.15308700       0.10142900 </v>
   <v>       0.32654400       0.65308700       0.10142900 </v>
   <v>       0.07654400       0.84691300       0.10142900 </v>
   <v>       0.32654400       0.34691300       0.10142900 </v>
   <v>       0.17345600       0.31975500       0.20285800 </v>
   <v>       0.42345600       0.81975500       0.20285800 </v>
   <v>       0.11184412       0.83511109       0.30509833 </v>
   <v>       0.37145885       0.28962479       0.30302635 </v>
   <v>       0.15308700       0.66666700       0.20285800 </v>
   <v>       0.40308800       0.16666700       0.20285800 </v>
   <v>       0.17345600       0.01358000       0.20285800 </v>
   <v>       0.42345600       0.51358000       0.20285800 </v>
   <v>       0.06491186       0.48308338       0.30060106 </v>
   <v>       0.04536708       0.98150452       0.32438204 </v>
   <v>       0.15055824       0.09627731       0.33048357 </v>
   <v>       0.34261732       0.72184959       0.30243522 </v>
   <v>       0.67345600       0.98642100       0.00000000 </v>
   <v>       0.92345600       0.48642100       0.00000000 </v>
   <v>       0.59691300       0.50000000       0.10142900 </v>
   <v>       0.84691300       0.00000000       0.10142900 </v>
   <v>       0.65308800       0.33333300       0.00000000 </v>
   <v>       0.90308800       0.83333300       0.00000000 </v>
   <v>       0.67345600       0.68024500       0.00000000 </v>
   <v>       0.92345600       0.18024500       0.00000000 </v>
   <v>       0.57654400       0.15308700       0.10142900 </v>
   <v>       0.82654400       0.65308700       0.10142900 </v>
   <v>       0.57654400       0.84691300       0.10142900 </v>
   <v>       0.82654400       0.34691300       0.10142900 </v>
   <v>       0.67345600       0.31975500       0.20285800 </v>
   <v>       0.92345600       0.81975500       0.20285800 </v>
   <v>       0.60850529       0.83815181       0.30437371 </v>
   <v>       0.88697654       0.26108976       0.30465235 </v>
   <v>       0.65308800       0.66666700       0.20285800 </v>
   <v>       0.90308800       0.16666700       0.20285800 </v>
   <v>       0.67345600       0.01358000       0.20285800 </v>
   <v>       0.92345600       0.51357900       0.20285800 </v>
   <v>       0.59486420       0.48997727       0.29935867 </v>
   <v>       0.53248326       0.98353629       0.31881951 </v>
   <v>       0.62730909       0.11029246       0.32491761 </v>
   <v>       0.84843721       0.74716884       0.30290208 </v>
   <v>       0.55902481       0.47611910       0.36510893 </v>
   <v>       0.00000000       0.66666700       0.14070600 </v>
   <v>       0.25000000       0.16666700       0.14070600 </v>
   <v>       0.00000000       0.33333300       0.06215200 </v>
   <v>       0.25000000       0.83333300       0.06215200 </v>
   <v>       0.00000000       0.00000000       0.03927700 </v>
   <v>       0.25000000       0.50000000       0.03927700 </v>
   <v>       0.00000000       0.66666700       0.26500900 </v>
   <v>       0.25000000       0.16666700       0.26500900 </v>
   <v>       0.00000000       0.33333300       0.24213400 </v>
   <v>       0.25000000       0.83333300       0.24213400 </v>
   <v>       0.00000000       0.00000000       0.16358100 </v>
   <v>       0.25000000       0.50000000       0.16358100 </v>
   <v>       0.50000000       0.66666700       0.14070600 </v>
   <v>       0.75000000       0.16666700       0.14070600 </v>
   <v>       0.50000000       0.33333300       0.06215200 </v>
   <v>       0.75000000       0.83333300       0.06215200 </v>
   <v>       0.50000000       0.00000000       0.03927700 </v>
   <v>       0.75000000       0.50000000       0.03927700 </v>
   <v>       0.50000000       0.66666700       0.26500900 </v>
   <v>       0.75000000       0.16666700       0.26500900 </v>
   <v>       0.50000000       0.33333300       0.24213400 </v>
   <v>       0.75000000       0.83333300       0.24213400 </v>
   <v>       0.50000000       0.00000000       0.16358100 </v>
   <v>       0.75000000       0.50000000       0.16358100 </v>
   <v>       0.26202556       0.49429515       0.38569783 </v>
  </varray>
  <varray name="selective"  type="logical" >
   <v type="logical" >  F  F  F </v>
   <v type="logical" >  F  F  F </v>
   <v type="logical" >  F  F  F </v>
   <v type="logical" >  F  F  F </v>
   <v type="logical" >  F  F  F </v>
   <v type="logical" >  F  F  F </v>
   <v type="logical" >  F  F  F </v>
   <v type="logical" >  F  F  F </v>
   <v type="logical" >  F  F  F </v>
   <v type="logical" >  F  F  F </v>
   <v type="logical" >  F  F  F </v>
   <v type="logical" >  F  F  F </v>
   <v type="logical" >  F  F  F </v>
   <v type="logical" >  F  F  F </v>
   <v type="logical" >  T  T  T </v>
   <v type="logical" >  T  T  T </v>
   <v type="logical" >  F  F  F </v>
   <v type="logical" >  F  F  F </v>
   <v type="logical" >  F  F  F </v>
   <v type="logical" >  F  F  F </v>
   <v type="logical" >  T  T  T </v>
   <v type="logical" >  T  T  T </v>
   <v type="logical" >  T  T  T </v>
   <v type="logical" >  T  T  T </v>
   <v type="logical" >  F  F  F </v>
   <v type="logical" >  F  F  F </v>
   <v type="logical" >  F  F  F </v>
   <v type="logical" >  F  F  F </v>
   <v type="logical" >  F  F  F </v>
   <v type="logical" >  F  F  F </v>
   <v type="logical" >  F  F  F </v>
   <v type="logical" >  F  F  F </v>
   <v type="logical" >  F  F  F </v>
   <v type="logical" >  F  F  F </v>
   <v type="logical" >  F  F  F </v>
   <v type="logical" >  F  F  F </v>
   <v type="logical" >  F  F  F </v>
   <v type="logical" >  F  F  F </v>
   <v type="logical" >  T  T  T </v>
   <v type="logical" >  T  T  T </v>
   <v type="logical" >  F  F  F </v>
   <v type="logical" >  F  F  F </v>
   <v type="logical" >  F  F  F </v>
   <v type="logical" >  F  F  F </v>
   <v type="logical" >  T  T  T </v>
   <v type="logical" >  T  T  T </v>
   <v type="logical" >  T  T  T </v>
   <v type="logical" >  T  T  T </v>
   <v type="logical" >  T  T  T </v>
   <v type="logical" >  F  F  F </v>
   <v type="logical" >  F  F  F </v>
   <v type="logical" >  F  F  F </v>
   <v type="logical" >  F  F  F </v>
   <v type="logical" >  F  F  F </v>
   <v type="logical" >  F  F  F </v>
   <v type="logical" >  F  F  F </v>
   <v type="logical" >  F  F  F </v>
   <v type="logical" >  F  F  F </v>
   <v type="logical" >  F  F  F </v>
   <v type="logical" >  F  F  F </v>
   <v type="logical" >  F  F  F </v>
   <v type="logical" >  F  F  F </v>
   <v type="logical" >  F  F  F </v>
   <v type="logical" >  F  F  F </v>
   <v type="logical" >  F  F  F </v>
   <v type="logical" >  F  F  F </v>
   <v type="logical" >  F  F  F </v>
   <v type="logical" >  F  F  F </v>
   <v type="logical" >  F  F  F </v>
   <v type="logical" >  F  F  F </v>
   <v type="logical" >  F  F  F </v>
   <v type="logical" >  F  F  F </v>
   <v type="logical" >  F  F  F </v>
   <v type="logical" >  T  T  T </v>
  </varray>
  <nose>
   <v>      -3.00000000       0.00000000       0.00010000       0.00010000 </v>
  </nose>
 </structure>
</modeling>
