   8   8   0   0
  0.1870276E+02  0.5308827E-09  0.5308827E-09  0.5308827E-09  0.5000000E-15
  1.000000000000000E-004
  CAR 
 ni3al                                   
      9.16484050    -30.94784741  301     -2.45948218      1.00000000
    -30.948  0.0000E+00  0.0000E+00
    -30.814  0.0000E+00  0.0000E+00
    -30.680  0.0000E+00  0.0000E+00
    -30.547  0.0000E+00  0.0000E+00
    -30.413  0.0000E+00  0.0000E+00
    -30.279  0.0000E+00  0.0000E+00
    -30.146  0.0000E+00  0.0000E+00
    -30.012  0.0000E+00  0.0000E+00
    -29.878  0.0000E+00  0.0000E+00
    -29.744  0.0000E+00  0.0000E+00
    -29.611  0.7836E-14  0.1048E-14
    -29.477  0.1326E-08  0.1773E-09
    -29.343  0.8997E-05  0.1203E-05
    -29.210  0.3116E-02  0.4179E-03
    -29.076  0.6833E-01  0.9554E-02
    -28.942  0.1136E+00  0.2475E-01
    -28.809  0.1427E-01  0.2665E-01
    -28.675  0.9338E-04  0.2667E-01
    -28.541  0.2329E-07  0.2667E-01
    -28.407  0.1917E-12  0.2667E-01
    -28.274  0.0000E+00  0.2667E-01
    -28.140  0.0000E+00  0.2667E-01
    -28.006  0.0000E+00  0.2667E-01
    -27.873  0.0000E+00  0.2667E-01
    -27.739  0.0000E+00  0.2667E-01
    -27.605  0.0000E+00  0.2667E-01
    -27.471  0.0000E+00  0.2667E-01
    -27.338  0.0000E+00  0.2667E-01
    -27.204  0.0000E+00  0.2667E-01
    -27.070  0.0000E+00  0.2667E-01
    -26.937  0.0000E+00  0.2667E-01
    -26.803  0.0000E+00  0.2667E-01
    -26.669  0.0000E+00  0.2667E-01
    -26.535  0.0000E+00  0.2667E-01
    -26.402  0.0000E+00  0.2667E-01
    -26.268  0.0000E+00  0.2667E-01
    -26.134  0.0000E+00  0.2667E-01
    -26.001  0.0000E+00  0.2667E-01
    -25.867  0.0000E+00  0.2667E-01
    -25.733  0.0000E+00  0.2667E-01
    -25.599  0.0000E+00  0.2667E-01
    -25.466  0.0000E+00  0.2667E-01
    -25.332  0.0000E+00  0.2667E-01
    -25.198  0.0000E+00  0.2667E-01
    -25.065  0.0000E+00  0.2667E-01
    -24.931  0.0000E+00  0.2667E-01
    -24.797  0.0000E+00  0.2667E-01
    -24.664  0.0000E+00  0.2667E-01
    -24.530  0.0000E+00  0.2667E-01
    -24.396  0.0000E+00  0.2667E-01
    -24.262  0.0000E+00  0.2667E-01
    -24.129  0.0000E+00  0.2667E-01
    -23.995  0.0000E+00  0.2667E-01
    -23.861  0.0000E+00  0.2667E-01
    -23.728  0.0000E+00  0.2667E-01
    -23.594  0.0000E+00  0.2667E-01
    -23.460  0.0000E+00  0.2667E-01
    -23.326  0.0000E+00  0.2667E-01
    -23.193  0.0000E+00  0.2667E-01
    -23.059  0.0000E+00  0.2667E-01
    -22.925  0.0000E+00  0.2667E-01
    -22.792  0.0000E+00  0.2667E-01
    -22.658  0.0000E+00  0.2667E-01
    -22.524  0.0000E+00  0.2667E-01
    -22.390  0.0000E+00  0.2667E-01
    -22.257  0.0000E+00  0.2667E-01
    -22.123  0.3421E-15  0.2667E-01
    -21.989  0.1862E-09  0.2667E-01
    -21.856  0.3379E-05  0.2667E-01
    -21.722  0.2227E-02  0.2696E-01
    -21.588  0.6475E-01  0.3562E-01
    -21.455  0.1174E+00  0.5132E-01
    -21.321  0.1496E-01  0.5332E-01
    -21.187  0.9773E-04  0.5333E-01
    -21.053  0.2502E-07  0.5333E-01
    -20.920  0.2223E-12  0.5333E-01
    -20.786  0.0000E+00  0.5333E-01
    -20.652  0.0000E+00  0.5333E-01
    -20.519  0.0000E+00  0.5333E-01
    -20.385  0.0000E+00  0.5333E-01
    -20.251  0.0000E+00  0.5333E-01
    -20.117  0.0000E+00  0.5333E-01
    -19.984  0.0000E+00  0.5333E-01
    -19.850  0.0000E+00  0.5333E-01
    -19.716  0.0000E+00  0.5333E-01
    -19.583  0.0000E+00  0.5333E-01
    -19.449  0.0000E+00  0.5333E-01
    -19.315  0.0000E+00  0.5333E-01
    -19.181  0.0000E+00  0.5333E-01
    -19.048  0.0000E+00  0.5333E-01
    -18.914  0.0000E+00  0.5333E-01
    -18.780  0.0000E+00  0.5333E-01
    -18.647  0.0000E+00  0.5333E-01
    -18.513  0.0000E+00  0.5333E-01
    -18.379  0.0000E+00  0.5333E-01
    -18.245  0.0000E+00  0.5333E-01
    -18.112  0.0000E+00  0.5333E-01
    -17.978  0.0000E+00  0.5333E-01
    -17.844  0.0000E+00  0.5333E-01
    -17.711  0.0000E+00  0.5333E-01
    -17.577  0.0000E+00  0.5333E-01
    -17.443  0.0000E+00  0.5333E-01
    -17.310  0.0000E+00  0.5333E-01
    -17.176  0.0000E+00  0.5333E-01
    -17.042  0.0000E+00  0.5333E-01
    -16.908  0.0000E+00  0.5333E-01
    -16.775  0.0000E+00  0.5333E-01
    -16.641  0.0000E+00  0.5333E-01
    -16.507  0.0000E+00  0.5333E-01
    -16.374  0.0000E+00  0.5333E-01
    -16.240  0.0000E+00  0.5333E-01
    -16.106  0.0000E+00  0.5333E-01
    -15.972  0.0000E+00  0.5333E-01
    -15.839  0.0000E+00  0.5333E-01
    -15.705  0.0000E+00  0.5333E-01
    -15.571  0.0000E+00  0.5333E-01
    -15.438  0.0000E+00  0.5333E-01
    -15.304  0.0000E+00  0.5333E-01
    -15.170  0.0000E+00  0.5333E-01
    -15.036  0.0000E+00  0.5333E-01
    -14.903  0.0000E+00  0.5333E-01
    -14.769  0.0000E+00  0.5333E-01
    -14.635  0.0000E+00  0.5333E-01
    -14.502  0.0000E+00  0.5333E-01
    -14.368  0.0000E+00  0.5333E-01
    -14.234  0.0000E+00  0.5333E-01
    -14.101  0.0000E+00  0.5333E-01
    -13.967  0.0000E+00  0.5333E-01
    -13.833  0.0000E+00  0.5333E-01
    -13.699  0.0000E+00  0.5333E-01
    -13.566  0.0000E+00  0.5333E-01
    -13.432  0.4637E-15  0.5333E-01
    -13.298  0.1062E-09  0.5333E-01
    -13.165  0.9031E-06  0.5333E-01
    -13.031  0.3545E-03  0.5338E-01
    -12.897  0.1061E-01  0.5480E-01
    -12.763  0.6248E-01  0.6315E-01
    -12.630  0.1629E+00  0.8493E-01
    -12.496  0.2335E+00  0.1161E+00
    -12.362  0.1200E+00  0.1322E+00
    -12.229  0.8544E-02  0.1333E+00
    -12.095  0.4288E-04  0.1333E+00
    -11.961  0.9895E-08  0.1333E+00
    -11.827  0.8369E-13  0.1333E+00
    -11.694  0.0000E+00  0.1333E+00
    -11.560  0.0000E+00  0.1333E+00
    -11.426  0.0000E+00  0.1333E+00
    -11.293  0.0000E+00  0.1333E+00
    -11.159  0.0000E+00  0.1333E+00
    -11.025  0.0000E+00  0.1333E+00
    -10.892  0.0000E+00  0.1333E+00
    -10.758  0.0000E+00  0.1333E+00
    -10.624  0.0000E+00  0.1333E+00
    -10.490  0.0000E+00  0.1333E+00
    -10.357  0.0000E+00  0.1333E+00
    -10.223  0.0000E+00  0.1333E+00
    -10.089  0.0000E+00  0.1333E+00
     -9.956  0.0000E+00  0.1333E+00
     -9.822  0.0000E+00  0.1333E+00
     -9.688  0.0000E+00  0.1333E+00
     -9.554  0.0000E+00  0.1333E+00
     -9.421  0.0000E+00  0.1333E+00
     -9.287  0.0000E+00  0.1333E+00
     -9.153  0.0000E+00  0.1333E+00
     -9.020  0.0000E+00  0.1333E+00
     -8.886  0.0000E+00  0.1333E+00
     -8.752  0.0000E+00  0.1333E+00
     -8.618  0.0000E+00  0.1333E+00
     -8.485  0.0000E+00  0.1333E+00
     -8.351  0.0000E+00  0.1333E+00
     -8.217  0.0000E+00  0.1333E+00
     -8.084  0.0000E+00  0.1333E+00
     -7.950  0.0000E+00  0.1333E+00
     -7.816  0.0000E+00  0.1333E+00
     -7.682  0.0000E+00  0.1333E+00
     -7.549  0.0000E+00  0.1333E+00
     -7.415  0.0000E+00  0.1333E+00
     -7.281  0.0000E+00  0.1333E+00
     -7.148  0.0000E+00  0.1333E+00
     -7.014  0.0000E+00  0.1333E+00
     -6.880  0.0000E+00  0.1333E+00
     -6.747  0.0000E+00  0.1333E+00
     -6.613  0.0000E+00  0.1333E+00
     -6.479  0.0000E+00  0.1333E+00
     -6.345  0.0000E+00  0.1333E+00
     -6.212  0.0000E+00  0.1333E+00
     -6.078  0.0000E+00  0.1333E+00
     -5.944  0.0000E+00  0.1333E+00
     -5.811  0.0000E+00  0.1333E+00
     -5.677  0.0000E+00  0.1333E+00
     -5.543  0.0000E+00  0.1333E+00
     -5.409  0.0000E+00  0.1333E+00
     -5.276  0.0000E+00  0.1333E+00
     -5.142  0.0000E+00  0.1333E+00
     -5.008  0.0000E+00  0.1333E+00
     -4.875  0.0000E+00  0.1333E+00
     -4.741  0.0000E+00  0.1333E+00
     -4.607  0.0000E+00  0.1333E+00
     -4.473  0.0000E+00  0.1333E+00
     -4.340  0.0000E+00  0.1333E+00
     -4.206  0.1002E-17  0.1333E+00
     -4.072  0.8890E-12  0.1333E+00
     -3.939  0.2588E-07  0.1333E+00
     -3.805  0.2965E-04  0.1333E+00
     -3.671  0.2082E-02  0.1336E+00
     -3.538  0.2058E-01  0.1364E+00
     -3.404  0.6147E-01  0.1446E+00
     -3.270  0.8321E-01  0.1557E+00
     -3.136  0.1616E+00  0.1773E+00
     -3.003  0.1906E+00  0.2028E+00
     -2.869  0.7307E-01  0.2126E+00
     -2.735  0.5603E-02  0.2133E+00
     -2.602  0.4223E-04  0.2133E+00
     -2.468  0.1929E-07  0.2133E+00
     -2.334  0.3795E-12  0.2133E+00
     -2.200  0.1367E-18  0.2133E+00
     -2.067  0.0000E+00  0.2133E+00
     -1.933  0.0000E+00  0.2133E+00
     -1.799  0.0000E+00  0.2133E+00
     -1.666  0.0000E+00  0.2133E+00
     -1.532  0.0000E+00  0.2133E+00
     -1.398  0.0000E+00  0.2133E+00
     -1.264  0.0000E+00  0.2133E+00
     -1.131  0.0000E+00  0.2133E+00
     -0.997  0.0000E+00  0.2133E+00
     -0.863  0.0000E+00  0.2133E+00
     -0.730  0.0000E+00  0.2133E+00
     -0.596  0.0000E+00  0.2133E+00
     -0.462  0.0000E+00  0.2133E+00
     -0.328  0.0000E+00  0.2133E+00
     -0.195  0.0000E+00  0.2133E+00
     -0.061  0.0000E+00  0.2133E+00
      0.073  0.0000E+00  0.2133E+00
      0.206  0.0000E+00  0.2133E+00
      0.340  0.0000E+00  0.2133E+00
      0.474  0.0000E+00  0.2133E+00
      0.607  0.0000E+00  0.2133E+00
      0.741  0.0000E+00  0.2133E+00
      0.875  0.0000E+00  0.2133E+00
      1.009  0.0000E+00  0.2133E+00
      1.142  0.0000E+00  0.2133E+00
      1.276  0.0000E+00  0.2133E+00
      1.410  0.0000E+00  0.2133E+00
      1.543  0.0000E+00  0.2133E+00
      1.677  0.0000E+00  0.2133E+00
      1.811  0.0000E+00  0.2133E+00
      1.945  0.0000E+00  0.2133E+00
      2.078  0.0000E+00  0.2133E+00
      2.212  0.0000E+00  0.2133E+00
      2.346  0.0000E+00  0.2133E+00
      2.479  0.1519E-19  0.2133E+00
      2.613  0.1590E-13  0.2133E+00
      2.747  0.4889E-09  0.2133E+00
      2.881  0.5007E-06  0.2133E+00
      3.014  0.2574E-04  0.2133E+00
      3.148  0.2264E-03  0.2134E+00
      3.282  0.6739E-03  0.2135E+00
      3.415  0.7974E-03  0.2136E+00
      3.549  0.9825E-03  0.2137E+00
      3.683  0.1796E-02  0.2139E+00
      3.816  0.1151E-02  0.2141E+00
      3.950  0.1494E-02  0.2143E+00
      4.084  0.2673E-02  0.2146E+00
      4.218  0.1948E-02  0.2149E+00
      4.351  0.2262E-02  0.2152E+00
      4.485  0.2946E-02  0.2156E+00
      4.619  0.2474E-02  0.2159E+00
      4.752  0.3830E-02  0.2164E+00
      4.886  0.3811E-02  0.2170E+00
      5.020  0.3567E-02  0.2174E+00
      5.154  0.3300E-02  0.2179E+00
      5.287  0.6722E-02  0.2188E+00
      5.421  0.8532E-02  0.2199E+00
      5.555  0.1013E-01  0.2213E+00
      5.688  0.1353E-01  0.2231E+00
      5.822  0.1686E-01  0.2253E+00
      5.956  0.2005E-01  0.2280E+00
      6.090  0.3044E-01  0.2321E+00
      6.223  0.3219E-01  0.2364E+00
      6.357  0.2691E-01  0.2400E+00
      6.491  0.2633E-01  0.2435E+00
      6.624  0.1722E-01  0.2458E+00
      6.758  0.1853E-01  0.2483E+00
      6.892  0.1558E-01  0.2504E+00
      7.025  0.9991E-02  0.2517E+00
      7.159  0.5736E-02  0.2525E+00
      7.293  0.4907E-02  0.2531E+00
      7.427  0.1457E-02  0.2533E+00
      7.560  0.9784E-04  0.2533E+00
      7.694  0.6427E-06  0.2533E+00
      7.828  0.1822E-09  0.2533E+00
      7.961  0.1735E-14  0.2533E+00
      8.095  0.0000E+00  0.2533E+00
      8.229  0.0000E+00  0.2533E+00
      8.363  0.0000E+00  0.2533E+00
      8.496  0.0000E+00  0.2533E+00
      8.630  0.0000E+00  0.2533E+00
      8.764  0.0000E+00  0.2533E+00
      8.897  0.0000E+00  0.2533E+00
      9.031  0.0000E+00  0.2533E+00
      9.165  0.0000E+00  0.2533E+00
