    8    8  300    1
  0.1870276E+02  0.5308827E-09  0.5308827E-09  0.5308827E-09  0.5000000E-15
  1.000000000000000E-004
  CAR 
 ni3al                                   
     64     35     38
 
  0.0000000E+00  0.0000000E+00  0.0000000E+00  0.1371742E-02
      1        -29.124543   1.000000
      2        -29.028573   1.000000
      3        -29.028573   1.000000
      4        -29.028573   1.000000
      5        -21.528594   1.000000
      6        -21.528594   1.000000
      7        -21.528594   1.000000
      8        -21.520456   1.000000
      9        -12.929337   1.000000
     10        -12.929337   1.000000
     11        -12.929337   1.000000
     12        -12.626362   1.000000
     13        -12.626362   1.000000
     14        -12.626362   1.000000
     15        -12.626362   1.000000
     16        -12.626362   1.000000
     17        -12.626362   1.000000
     18        -12.441678   1.000000
     19        -12.441678   1.000000
     20        -12.441678   1.000000
     21         -3.140629   1.000000
     22         -3.140629   1.000000
     23         -3.140629   1.000000
     24         -2.974963   1.000000
     25         -2.974963   1.000000
     26         -2.974963   1.000000
     27         -2.974963   1.000000
     28         -2.974963   1.000000
     29         -2.974963   1.000000
     30         -2.910285   1.000000
     31         -2.910285   1.000000
     32         -2.910285   1.000000
     33          3.053662   0.000000
     34          5.249057   0.000000
     35          5.249057   0.000000
     36          5.249057   0.000000
     37          7.167072   0.000000
     38          7.167800   0.000000
 
  0.1111111E+00  0.0000000E+00  0.0000000E+00  0.8230453E-02
      1        -29.121445   1.000000
      2        -29.031250   1.000000
      3        -29.028322   1.000000
      4        -29.028322   1.000000
      5        -21.530962   1.000000
      6        -21.530962   1.000000
      7        -21.530826   1.000000
      8        -21.522611   1.000000
      9        -12.920379   1.000000
     10        -12.920379   1.000000
     11        -12.903406   1.000000
     12        -12.635678   1.000000
     13        -12.635678   1.000000
     14        -12.620780   1.000000
     15        -12.620780   1.000000
     16        -12.614467   1.000000
     17        -12.614467   1.000000
     18        -12.447212   1.000000
     19        -12.447212   1.000000
     20        -12.444056   1.000000
     21         -3.170628   1.000000
     22         -3.138510   1.000000
     23         -3.138510   1.000000
     24         -3.011965   1.000000
     25         -3.011965   1.000000
     26         -2.983497   1.000000
     27         -2.983497   1.000000
     28         -2.974954   1.000000
     29         -2.974954   1.000000
     30         -2.963855   1.000000
     31         -2.914402   1.000000
     32         -2.914402   1.000000
     33          3.166485   0.000000
     34          5.298047   0.000000
     35          5.331236   0.000000
     36          5.331236   0.000000
     37          6.945398   0.000000
     38          7.257945   0.000000
 
  0.2222222E+00  0.0000000E+00  0.0000000E+00  0.8230453E-02
      1        -29.112583   1.000000
      2        -29.039035   1.000000
      3        -29.027685   1.000000
      4        -29.027685   1.000000
      5        -21.537200   1.000000
      6        -21.537200   1.000000
      7        -21.536467   1.000000
      8        -21.529256   1.000000
      9        -12.894513   1.000000
     10        -12.894513   1.000000
     11        -12.832211   1.000000
     12        -12.662447   1.000000
     13        -12.662447   1.000000
     14        -12.604708   1.000000
     15        -12.604708   1.000000
     16        -12.584155   1.000000
     17        -12.584155   1.000000
     18        -12.463189   1.000000
     19        -12.463189   1.000000
     20        -12.455388   1.000000
     21         -3.245552   1.000000
     22         -3.131577   1.000000
     23         -3.131577   1.000000
     24         -3.104601   1.000000
     25         -3.104601   1.000000
     26         -3.095785   1.000000
     27         -3.006574   1.000000
     28         -3.006574   1.000000
     29         -2.974323   1.000000
     30         -2.974323   1.000000
     31         -2.925417   1.000000
     32         -2.925417   1.000000
     33          3.480916   0.000000
     34          5.443555   0.000000
     35          5.569752   0.000000
     36          5.569752   0.000000
     37          6.418397   0.000000
     38          7.217911   0.000000
 
  0.3333333E+00  0.0000000E+00  0.0000000E+00  0.8230453E-02
      1        -29.099212   1.000000
      2        -29.051186   1.000000
      3        -29.026960   1.000000
      4        -29.026960   1.000000
      5        -21.544023   1.000000
      6        -21.544023   1.000000
      7        -21.542368   1.000000
      8        -21.537601   1.000000
      9        -12.854730   1.000000
     10        -12.854730   1.000000
     11        -12.733371   1.000000
     12        -12.703256   1.000000
     13        -12.703256   1.000000
     14        -12.580084   1.000000
     15        -12.580084   1.000000
     16        -12.549347   1.000000
     17        -12.549347   1.000000
     18        -12.487710   1.000000
     19        -12.487710   1.000000
     20        -12.485668   1.000000
     21         -3.327058   1.000000
     22         -3.242150   1.000000
     23         -3.208201   1.000000
     24         -3.208201   1.000000
     25         -3.118459   1.000000
     26         -3.118459   1.000000
     27         -3.037862   1.000000
     28         -3.037862   1.000000
     29         -2.971540   1.000000
     30         -2.971540   1.000000
     31         -2.939956   1.000000
     32         -2.939956   1.000000
     33          3.944396   0.000000
     34          5.680822   0.000000
     35          5.782995   0.000000
     36          5.942147   0.000000
     37          5.942147   0.000000
     38          6.807498   0.000000
 
  0.4444444E+00  0.0000000E+00  0.0000000E+00  0.8230453E-02
      1        -29.083141   1.000000
      2        -29.066458   1.000000
      3        -29.026486   1.000000
      4        -29.026486   1.000000
      5        -21.548563   1.000000
      6        -21.548563   1.000000
      7        -21.545292   1.000000
      8        -21.543762   1.000000
      9        -12.805630   1.000000
     10        -12.805630   1.000000
     11        -12.753028   1.000000
     12        -12.753028   1.000000
     13        -12.630193   1.000000
     14        -12.549902   1.000000
     15        -12.549902   1.000000
     16        -12.543779   1.000000
     17        -12.526435   1.000000
     18        -12.526435   1.000000
     19        -12.517820   1.000000
     20        -12.517820   1.000000
     21         -3.370492   1.000000
     22         -3.343727   1.000000
     23         -3.274906   1.000000
     24         -3.274906   1.000000
     25         -3.097921   1.000000
     26         -3.097921   1.000000
     27         -3.070154   1.000000
     28         -3.070154   1.000000
     29         -2.965015   1.000000
     30         -2.965015   1.000000
     31         -2.954122   1.000000
     32         -2.954122   1.000000
     33          4.506690   0.000000
     34          5.130326   0.000000
     35          6.000489   0.000000
     36          6.385847   0.000000
     37          6.415370   0.000000
     38          6.415457   0.000000
 
  0.1111111E+00  0.1111111E+00  0.0000000E+00  0.1646091E-01
      1        -29.118428   1.000000
      2        -29.030909   1.000000
      3        -29.030909   1.000000
      4        -29.028158   1.000000
      5        -21.533345   1.000000
      6        -21.533254   1.000000
      7        -21.533254   1.000000
      8        -21.525380   1.000000
      9        -12.911503   1.000000
     10        -12.895058   1.000000
     11        -12.895058   1.000000
     12        -12.632157   1.000000
     13        -12.629984   1.000000
     14        -12.629984   1.000000
     15        -12.614456   1.000000
     16        -12.609056   1.000000
     17        -12.609056   1.000000
     18        -12.457722   1.000000
     19        -12.452887   1.000000
     20        -12.440549   1.000000
     21         -3.170224   1.000000
     22         -3.170224   1.000000
     23         -3.136428   1.000000
     24         -3.036968   1.000000
     25         -3.010911   1.000000
     26         -3.010911   1.000000
     27         -3.003489   1.000000
     28         -2.990338   1.000000
     29         -2.983385   1.000000
     30         -2.983385   1.000000
     31         -2.944384   1.000000
     32         -2.918695   1.000000
     33          3.277337   0.000000
     34          5.379124   0.000000
     35          5.379124   0.000000
     36          5.409350   0.000000
     37          7.015931   0.000000
     38          7.018928   0.000000
 
  0.2222222E+00  0.1111111E+00  0.0000000E+00  0.3292181E-01
      1        -29.109808   1.000000
      2        -29.038440   1.000000
      3        -29.030017   1.000000
      4        -29.027773   1.000000
      5        -21.539516   1.000000
      6        -21.539431   1.000000
      7        -21.538972   1.000000
      8        -21.532059   1.000000
      9        -12.885928   1.000000
     10        -12.870880   1.000000
     11        -12.825738   1.000000
     12        -12.656437   1.000000
     13        -12.653167   1.000000
     14        -12.613596   1.000000
     15        -12.593368   1.000000
     16        -12.587178   1.000000
     17        -12.579331   1.000000
     18        -12.477728   1.000000
     19        -12.469198   1.000000
     20        -12.445182   1.000000
     21         -3.247892   1.000000
     22         -3.174703   1.000000
     23         -3.129615   1.000000
     24         -3.123963   1.000000
     25         -3.110515   1.000000
     26         -3.093880   1.000000
     27         -3.030742   1.000000
     28         -3.009355   1.000000
     29         -3.006180   1.000000
     30         -2.982443   1.000000
     31         -2.964168   1.000000
     32         -2.930183   1.000000
     33          3.586785   0.000000
     34          5.521236   0.000000
     35          5.614119   0.000000
     36          5.635045   0.000000
     37          6.482238   0.000000
     38          7.190728   0.000000
 
  0.3333333E+00  0.1111111E+00  0.0000000E+00  0.3292181E-01
      1        -29.096804   1.000000
      2        -29.050204   1.000000
      3        -29.028901   1.000000
      4        -29.027436   1.000000
      5        -21.546431   1.000000
      6        -21.546368   1.000000
      7        -21.544970   1.000000
      8        -21.540265   1.000000
      9        -12.846569   1.000000
     10        -12.833557   1.000000
     11        -12.730393   1.000000
     12        -12.696775   1.000000
     13        -12.691108   1.000000
     14        -12.588491   1.000000
     15        -12.568825   1.000000
     16        -12.551164   1.000000
     17        -12.545653   1.000000
     18        -12.508408   1.000000
     19        -12.494224   1.000000
     20        -12.465213   1.000000
     21         -3.331673   1.000000
     22         -3.253120   1.000000
     23         -3.230559   1.000000
     24         -3.225826   1.000000
     25         -3.130798   1.000000
     26         -3.116688   1.000000
     27         -3.061805   1.000000
     28         -3.037091   1.000000
     29         -3.006914   1.000000
     30         -2.979163   1.000000
     31         -2.978876   1.000000
     32         -2.945402   1.000000
     33          4.042963   0.000000
     34          5.752544   0.000000
     35          5.851762   0.000000
     36          5.979857   0.000000
     37          5.983571   0.000000
     38          6.840368   0.000000
 
  0.4444444E+00  0.1111111E+00  0.0000000E+00  0.3292181E-01
      1        -29.081194   1.000000
      2        -29.065006   1.000000
      3        -29.027948   1.000000
      4        -29.027439   1.000000
      5        -21.551068   1.000000
      6        -21.550901   1.000000
      7        -21.548005   1.000000
      8        -21.546299   1.000000
      9        -12.798002   1.000000
     10        -12.787392   1.000000
     11        -12.745985   1.000000
     12        -12.737869   1.000000
     13        -12.633216   1.000000
     14        -12.557702   1.000000
     15        -12.556755   1.000000
     16        -12.537196   1.000000
     17        -12.526350   1.000000
     18        -12.524962   1.000000
     19        -12.524397   1.000000
     20        -12.500176   1.000000
     21         -3.377044   1.000000
     22         -3.352238   1.000000
     23         -3.292006   1.000000
     24         -3.291699   1.000000
     25         -3.117914   1.000000
     26         -3.096420   1.000000
     27         -3.092750   1.000000
     28         -3.068995   1.000000
     29         -3.001512   1.000000
     30         -2.991970   1.000000
     31         -2.971987   1.000000
     32         -2.960341   1.000000
     33          4.596019   0.000000
     34          5.209122   0.000000
     35          6.063214   0.000000
     36          6.415546   0.000000
     37          6.435871   0.000000
     38          6.441745   0.000000
 
  0.2222222E+00  0.2222222E+00  0.0000000E+00  0.1646091E-01
      1        -29.101881   1.000000
      2        -29.036813   1.000000
      3        -29.036813   1.000000
      4        -29.028114   1.000000
      5        -21.545453   1.000000
      6        -21.545047   1.000000
      7        -21.545047   1.000000
      8        -21.538951   1.000000
      9        -12.861153   1.000000
     10        -12.806727   1.000000
     11        -12.806727   1.000000
     12        -12.644114   1.000000
     13        -12.639135   1.000000
     14        -12.639135   1.000000
     15        -12.582167   1.000000
     16        -12.565085   1.000000
     17        -12.565085   1.000000
     18        -12.500177   1.000000
     19        -12.486481   1.000000
     20        -12.439669   1.000000
     21         -3.259968   1.000000
     22         -3.259968   1.000000
     23         -3.190205   1.000000
     24         -3.177199   1.000000
     25         -3.123149   1.000000
     26         -3.089482   1.000000
     27         -3.089482   1.000000
     28         -3.074894   1.000000
     29         -3.030090   1.000000
     30         -3.004402   1.000000
     31         -3.004402   1.000000
     32         -2.942988   1.000000
     33          3.882181   0.000000
     34          5.745317   0.000000
     35          5.745317   0.000000
     36          5.820479   0.000000
     37          6.630677   0.000000
     38          6.630805   0.000000
 
  0.3333333E+00  0.2222222E+00  0.0000000E+00  0.3292181E-01
      1        -29.089948   1.000000
      2        -29.047462   1.000000
      3        -29.034574   1.000000
      4        -29.028893   1.000000
      5        -21.552391   1.000000
      6        -21.552248   1.000000
      7        -21.551178   1.000000
      8        -21.546945   1.000000
      9        -12.823025   1.000000
     10        -12.776898   1.000000
     11        -12.720497   1.000000
     12        -12.678115   1.000000
     13        -12.664409   1.000000
     14        -12.612631   1.000000
     15        -12.552048   1.000000
     16        -12.541870   1.000000
     17        -12.534387   1.000000
     18        -12.530160   1.000000
     19        -12.512977   1.000000
     20        -12.448649   1.000000
     21         -3.348822   1.000000
     22         -3.299530   1.000000
     23         -3.292871   1.000000
     24         -3.281284   1.000000
     25         -3.148897   1.000000
     26         -3.111585   1.000000
     27         -3.110801   1.000000
     28         -3.088716   1.000000
     29         -3.062847   1.000000
     30         -3.034198   1.000000
     31         -2.999782   1.000000
     32         -2.960091   1.000000
     33          4.317016   0.000000
     34          5.957120   0.000000
     35          6.027172   0.000000
     36          6.090080   0.000000
     37          6.094749   0.000000
     38          6.737635   0.000000
 
  0.4444444E+00  0.2222222E+00  0.0000000E+00  0.3292181E-01
      1        -29.075665   1.000000
      2        -29.060907   1.000000
      3        -29.032244   1.000000
      4        -29.030270   1.000000
      5        -21.556870   1.000000
      6        -21.556759   1.000000
      7        -21.554545   1.000000
      8        -21.552953   1.000000
      9        -12.776013   1.000000
     10        -12.739679   1.000000
     11        -12.725681   1.000000
     12        -12.700021   1.000000
     13        -12.636446   1.000000
     14        -12.580111   1.000000
     15        -12.572835   1.000000
     16        -12.545492   1.000000
     17        -12.524216   1.000000
     18        -12.517478   1.000000
     19        -12.510404   1.000000
     20        -12.475153   1.000000
     21         -3.399138   1.000000
     22         -3.380773   1.000000
     23         -3.346081   1.000000
     24         -3.343576   1.000000
     25         -3.157291   1.000000
     26         -3.140393   1.000000
     27         -3.091348   1.000000
     28         -3.086120   1.000000
     29         -3.078414   1.000000
     30         -3.064944   1.000000
     31         -2.990843   1.000000
     32         -2.977145   1.000000
     33          4.841911   0.000000
     34          5.420925   0.000000
     35          6.237248   0.000000
     36          6.403763   0.000000
     37          6.516367   0.000000
     38          6.581632   0.000000
 
  0.3333333E+00  0.3333333E+00  0.0000000E+00  0.1646091E-01
      1        -29.079668   1.000000
      2        -29.043511   1.000000
      3        -29.043511   1.000000
      4        -29.031384   1.000000
      5        -21.558994   1.000000
      6        -21.558510   1.000000
      7        -21.558510   1.000000
      8        -21.555159   1.000000
      9        -12.786816   1.000000
     10        -12.703329   1.000000
     11        -12.703329   1.000000
     12        -12.649978   1.000000
     13        -12.649503   1.000000
     14        -12.649503   1.000000
     15        -12.554762   1.000000
     16        -12.541706   1.000000
     17        -12.538672   1.000000
     18        -12.514923   1.000000
     19        -12.514923   1.000000
     20        -12.445126   1.000000
     21         -3.384991   1.000000
     22         -3.384991   1.000000
     23         -3.366233   1.000000
     24         -3.359739   1.000000
     25         -3.160094   1.000000
     26         -3.160094   1.000000
     27         -3.154009   1.000000
     28         -3.127197   1.000000
     29         -3.099423   1.000000
     30         -3.027767   1.000000
     31         -3.027767   1.000000
     32         -2.979866   1.000000
     33          4.716731   0.000000
     34          6.227360   0.000000
     35          6.227465   0.000000
     36          6.236755   0.000000
     37          6.263260   0.000000
     38          6.263280   0.000000
 
  0.4444444E+00  0.3333333E+00  0.0000000E+00  0.3292181E-01
      1        -29.067430   1.000000
      2        -29.054869   1.000000
      3        -29.039076   1.000000
      4        -29.034864   1.000000
      5        -21.563450   1.000000
      6        -21.563148   1.000000
      7        -21.561901   1.000000
      8        -21.560659   1.000000
      9        -12.742228   1.000000
     10        -12.694531   1.000000
     11        -12.681367   1.000000
     12        -12.660135   1.000000
     13        -12.635777   1.000000
     14        -12.614359   1.000000
     15        -12.587352   1.000000
     16        -12.576916   1.000000
     17        -12.514555   1.000000
     18        -12.503495   1.000000
     19        -12.487670   1.000000
     20        -12.459933   1.000000
     21         -3.438877   1.000000
     22         -3.430842   1.000000
     23         -3.421712   1.000000
     24         -3.416803   1.000000
     25         -3.186925   1.000000
     26         -3.180489   1.000000
     27         -3.163499   1.000000
     28         -3.155497   1.000000
     29         -3.081329   1.000000
     30         -3.056621   1.000000
     31         -3.016415   1.000000
     32         -2.999884   1.000000
     33          5.191914   0.000000
     34          5.704396   0.000000
     35          6.346530   0.000000
     36          6.352778   0.000000
     37          6.479665   0.000000
     38          6.620327   0.000000
 
  0.4444444E+00  0.4444444E+00  0.0000000E+00  0.1646091E-01
      1        -29.057720   1.000000
      2        -29.047870   1.000000
      3        -29.047870   1.000000
      4        -29.040920   1.000000
      5        -21.567278   1.000000
      6        -21.566997   1.000000
      7        -21.566997   1.000000
      8        -21.566003   1.000000
      9        -12.700637   1.000000
     10        -12.656235   1.000000
     11        -12.656235   1.000000
     12        -12.638332   1.000000
     13        -12.633931   1.000000
     14        -12.633931   1.000000
     15        -12.615383   1.000000
     16        -12.604983   1.000000
     17        -12.495685   1.000000
     18        -12.482150   1.000000
     19        -12.482150   1.000000
     20        -12.463062   1.000000
     21         -3.475910   1.000000
     22         -3.475339   1.000000
     23         -3.475339   1.000000
     24         -3.470785   1.000000
     25         -3.201838   1.000000
     26         -3.199971   1.000000
     27         -3.199971   1.000000
     28         -3.193060   1.000000
     29         -3.065107   1.000000
     30         -3.042719   1.000000
     31         -3.042719   1.000000
     32         -3.023140   1.000000
     33          5.589281   0.000000
     34          5.987696   0.000000
     35          5.987698   0.000000
     36          6.211323   0.000000
     37          6.721212   0.000000
     38          6.728119   0.000000
 
  0.1111111E+00  0.1111111E+00  0.1111111E+00  0.1097394E-01
      1        -29.115492   1.000000
      2        -29.030657   1.000000
      3        -29.030657   1.000000
      4        -29.030657   1.000000
      5        -21.535666   1.000000
      6        -21.535666   1.000000
      7        -21.535666   1.000000
      8        -21.527881   1.000000
      9        -12.886829   1.000000
     10        -12.886829   1.000000
     11        -12.886829   1.000000
     12        -12.626353   1.000000
     13        -12.626353   1.000000
     14        -12.626353   1.000000
     15        -12.609184   1.000000
     16        -12.609184   1.000000
     17        -12.609184   1.000000
     18        -12.471479   1.000000
     19        -12.445745   1.000000
     20        -12.445745   1.000000
     21         -3.170450   1.000000
     22         -3.170450   1.000000
     23         -3.170450   1.000000
     24         -3.033859   1.000000
     25         -3.033859   1.000000
     26         -3.033859   1.000000
     27         -3.016473   1.000000
     28         -3.003678   1.000000
     29         -3.003678   1.000000
     30         -3.003678   1.000000
     31         -2.948348   1.000000
     32         -2.948348   1.000000
     33          3.386518   0.000000
     34          5.455981   0.000000
     35          5.455981   0.000000
     36          5.455982   0.000000
     37          7.084379   0.000000
     38          7.085492   0.000000
 
  0.2222222E+00  0.1111111E+00  0.1111111E+00  0.3292181E-01
      1        -29.107114   1.000000
      2        -29.037933   1.000000
      3        -29.030016   1.000000
      4        -29.030016   1.000000
      5        -21.541811   1.000000
      6        -21.541811   1.000000
      7        -21.541516   1.000000
      8        -21.534741   1.000000
      9        -12.863069   1.000000
     10        -12.863069   1.000000
     11        -12.819578   1.000000
     12        -12.647011   1.000000
     13        -12.647011   1.000000
     14        -12.609345   1.000000
     15        -12.594004   1.000000
     16        -12.582394   1.000000
     17        -12.582394   1.000000
     18        -12.494374   1.000000
     19        -12.460742   1.000000
     20        -12.446481   1.000000
     21         -3.251125   1.000000
     22         -3.180382   1.000000
     23         -3.180382   1.000000
     24         -3.126930   1.000000
     25         -3.105855   1.000000
     26         -3.105855   1.000000
     27         -3.030632   1.000000
     28         -3.030632   1.000000
     29         -3.029935   1.000000
     30         -3.003596   1.000000
     31         -2.976381   1.000000
     32         -2.958922   1.000000
     33          3.690851   0.000000
     34          5.593898   0.000000
     35          5.677617   0.000000
     36          5.677623   0.000000
     37          6.543980   0.000000
     38          7.227681   0.000000
 
  0.3333333E+00  0.1111111E+00  0.1111111E+00  0.3292181E-01
      1        -29.094481   1.000000
      2        -29.049309   1.000000
      3        -29.029287   1.000000
      4        -29.029287   1.000000
      5        -21.548764   1.000000
      6        -21.548764   1.000000
      7        -21.547526   1.000000
      8        -21.542783   1.000000
      9        -12.826467   1.000000
     10        -12.826467   1.000000
     11        -12.728217   1.000000
     12        -12.684233   1.000000
     13        -12.684233   1.000000
     14        -12.582042   1.000000
     15        -12.570754   1.000000
     16        -12.547452   1.000000
     17        -12.547452   1.000000
     18        -12.526058   1.000000
     19        -12.483762   1.000000
     20        -12.463925   1.000000
     21         -3.337146   1.000000
     22         -3.265137   1.000000
     23         -3.246926   1.000000
     24         -3.246926   1.000000
     25         -3.130698   1.000000
     26         -3.130698   1.000000
     27         -3.061155   1.000000
     28         -3.061155   1.000000
     29         -3.026043   1.000000
     30         -3.001617   1.000000
     31         -2.994056   1.000000
     32         -2.972779   1.000000
     33          4.139446   0.000000
     34          5.804134   0.000000
     35          5.934903   0.000000
     36          6.018031   0.000000
     37          6.018040   0.000000
     38          6.869652   0.000000
 
  0.4444444E+00  0.1111111E+00  0.1111111E+00  0.3292181E-01
      1        -29.079331   1.000000
      2        -29.063639   1.000000
      3        -29.028811   1.000000
      4        -29.028811   1.000000
      5        -21.553258   1.000000
      6        -21.553258   1.000000
      7        -21.550553   1.000000
      8        -21.548908   1.000000
      9        -12.782212   1.000000
     10        -12.782212   1.000000
     11        -12.729070   1.000000
     12        -12.729070   1.000000
     13        -12.638105   1.000000
     14        -12.570664   1.000000
     15        -12.544970   1.000000
     16        -12.542292   1.000000
     17        -12.524260   1.000000
     18        -12.524260   1.000000
     19        -12.512080   1.000000
     20        -12.500781   1.000000
     21         -3.384422   1.000000
     22         -3.361618   1.000000
     23         -3.308666   1.000000
     24         -3.308666   1.000000
     25         -3.117454   1.000000
     26         -3.117454   1.000000
     27         -3.091212   1.000000
     28         -3.091212   1.000000
     29         -3.019504   1.000000
     30         -3.008752   1.000000
     31         -2.996032   1.000000
     32         -2.986090   1.000000
     33          4.682639   0.000000
     34          5.283549   0.000000
     35          6.125261   0.000000
     36          6.431418   0.000000
     37          6.431845   0.000000
     38          6.483755   0.000000
 
  0.2222222E+00  0.2222222E+00  0.1111111E+00  0.3292181E-01
      1        -29.099431   1.000000
      2        -29.036557   1.000000
      3        -29.036557   1.000000
      4        -29.030101   1.000000
      5        -21.547794   1.000000
      6        -21.547500   1.000000
      7        -21.547500   1.000000
      8        -21.541597   1.000000
      9        -12.840462   1.000000
     10        -12.801513   1.000000
     11        -12.801513   1.000000
     12        -12.637337   1.000000
     13        -12.628877   1.000000
     14        -12.628877   1.000000
     15        -12.577790   1.000000
     16        -12.568331   1.000000
     17        -12.568331   1.000000
     18        -12.519428   1.000000
     19        -12.470160   1.000000
     20        -12.443871   1.000000
     21         -3.267042   1.000000
     22         -3.267042   1.000000
     23         -3.218976   1.000000
     24         -3.195032   1.000000
     25         -3.127666   1.000000
     26         -3.100579   1.000000
     27         -3.100579   1.000000
     28         -3.075589   1.000000
     29         -3.033660   1.000000
     30         -3.029810   1.000000
     31         -3.029810   1.000000
     32         -2.976828   1.000000
     33          3.980897   0.000000
     34          5.801683   0.000000
     35          5.801684   0.000000
     36          5.857139   0.000000
     37          6.686300   0.000000
     38          6.686544   0.000000
 
  0.3333333E+00  0.2222222E+00  0.1111111E+00  0.6584362E-01
      1        -29.087870   1.000000
      2        -29.046817   1.000000
      3        -29.034704   1.000000
      4        -29.030488   1.000000
      5        -21.554742   1.000000
      6        -21.554594   1.000000
      7        -21.553730   1.000000
      8        -21.549671   1.000000
      9        -12.805812   1.000000