 vasp.6.3.2 27Jun22 (build Mar 15 2023 15:45:48) complex                        
  
 executed on             LinuxIFC date 2024.07.18  10:22:22
 running on    4 total cores
 distrk:  each k-point on    1 cores,    4 groups
 distr:  one band on NCORE=   1 cores,    1 groups


--------------------------------------------------------------------------------------------------------


 INCAR:
   SYSTEM = ni3al
   PREC = Accurate
   EDIFF = 1E-6
   EDIFFG = -1E-2
   ISTART = 0
   ICHARG = 2
   LREAL = Auto
   NSW = 300
   ISIF = 3
   IBRION = 2
   ISMEAR = 0
   SIGMA = 0.1
   ENCUT = 530
   ALGO = Fast
   LMAXMIX = 4
   AMIN = 0.01
   NELM = 150
   LCHARG = .FALSE.
   LWAVE = .FALSE.
   KPAR = 8

 POTCAR:   PAW_PBE K_sv 06Sep2000                 
 POTCAR:   PAW_PBE F 08Apr2002                    
 POTCAR:   PAW_PBE K_sv 06Sep2000                 
   VRHFIN =K:  3s3p4s                                                                               
   LEXCH  = PE                                                                                      
   EATOM  =   774.7423 eV,   56.9420 Ry                                                             
                                                                                                    
   TITEL  = PAW_PBE K_sv 06Sep2000                                                                  
   LULTRA =        F    use ultrasoft PP ?                                                          
   IUNSCR =        1    unscreen: 0-lin 1-nonlin 2-no                                               
   RPACOR =    2.200    partial core radius                                                         
   POMASS =   39.098; ZVAL   =    9.000    mass and valenz                                          
   RCORE  =    2.300    outmost cutoff radius                                                       
   RWIGS  =    3.000; RWIGS  =    1.588    wigner-seitz radius (au A)                               
   ENMAX  =  259.216; ENMIN  =  194.412 eV                                                          
   RCLOC  =    2.005    cutoff for local pot                                                        
   LCOR   =        T    correct aug charges                                                         
   LPAW   =        T    paw PP                                                                      
   EAUG   =  427.853                                                                                
   DEXC   =     .000                                                                                
   RMAX   =    2.864    core radius for proj-oper                                                   
   RAUG   =    1.300    factor for augmentation sphere                                              
   RDEP   =    2.372    radius for radial grids                                                     
   QCUT   =   -4.365; QGAM   =    8.730    optimization parameters                                  
                                                                                                    
   Description                                                                                      
     l     E      TYP  RCUT    TYP  RCUT                                                            
     0   .000     23  2.300                                                                         
     0   .000     23  2.300                                                                         
     1   .000     23  2.300                                                                         
     1 -1.500     23  2.300                                                                         
     2   .000     23  2.300                                                                         
  local pseudopotential read in
  partial core-charges read in
  atomic valenz-charges read in
  non local Contribution for L=           0  read in
    real space projection operators read in
  non local Contribution for L=           0  read in
    real space projection operators read in
  non local Contribution for L=           1  read in
    real space projection operators read in
  non local Contribution for L=           1  read in
    real space projection operators read in
  non local Contribution for L=           2  read in
    real space projection operators read in
    PAW grid and wavefunctions read in
 
   number of l-projection  operators is LMAX  =           5
   number of lm-projection operators is LMMAX =          13
 
 POTCAR:   PAW_PBE F 08Apr2002                    
   VRHFIN =F: s2p5                                                                                  
   LEXCH  = PE                                                                                      
   EATOM  =   659.4942 eV,   48.4715 Ry                                                             
                                                                                                    
   TITEL  = PAW_PBE F 08Apr2002                                                                     
   LULTRA =        F    use ultrasoft PP ?                                                          
   IUNSCR =        0    unscreen: 0-lin 1-nonlin 2-no                                               
   RPACOR =     .000    partial core radius                                                         
   POMASS =   18.998; ZVAL   =    7.000    mass and valenz                                          
   RCORE  =    1.520    outmost cutoff radius                                                       
   RWIGS  =    1.500; RWIGS  =     .794    wigner-seitz radius (au A)                               
   ENMAX  =  400.000; ENMIN  =  300.000 eV                                                          
   ICORE  =        2    local potential                                                             
   LCOR   =        T    correct aug charges                                                         
   LPAW   =        T    paw PP                                                                      
   EAUG   =  613.614                                                                                
   DEXC   =     .000                                                                                
   RMAX   =    2.254    core radius for proj-oper                                                   
   RAUG   =    1.300    factor for augmentation sphere                                              
   RDEP   =    1.539    radius for radial grids                                                     
   QCUT   =   -5.545; QGAM   =   11.091    optimization parameters                                  
                                                                                                    
   Description                                                                                      
     l     E      TYP  RCUT    TYP  RCUT                                                            
     0   .000     23  1.200                                                                         
     0  -.700     23  1.200                                                                         
     1   .000     23  1.520                                                                         
     1   .100     23  1.520                                                                         
     2   .000      7  1.500                                                                         
  local pseudopotential read in
  atomic valenz-charges read in
  non local Contribution for L=           0  read in
    real space projection operators read in
  non local Contribution for L=           0  read in
    real space projection operators read in
  non local Contribution for L=           1  read in
    real space projection operators read in
  non local Contribution for L=           1  read in
    real space projection operators read in
    PAW grid and wavefunctions read in
 
   number of l-projection  operators is LMAX  =           4
   number of lm-projection operators is LMMAX =           8
 
 -----------------------------------------------------------------------------
|                                                                             |
|               ----> ADVICE to this user running VASP <----                  |
|                                                                             |
|     You have a (more or less) 'small supercell' and for smaller cells       |
|     it is recommended to use the reciprocal-space projection scheme!        |
|     The real-space optimization is not efficient for small cells and it     |
|     is also less accurate ...                                               |
|     Therefore, set LREAL=.FALSE. in the INCAR file.                         |
|                                                                             |
 -----------------------------------------------------------------------------

 Optimization of the real space projectors (new method)

 maximal supplied QI-value         = 16.25
 optimisation between [QCUT,QGAM] = [ 11.70, 23.56] = [ 38.34,155.50] Ry 
 Optimized for a Real-space Cutoff    1.35 Angstroem

   l    n(q)    QCUT    max X(q) W(low)/X(q) W(high)/X(q)  e(spline) 
   0     10    11.701     6.336    0.13E-04    0.76E-05    0.61E-08
   0     10    11.701    13.439    0.24E-04    0.57E-04    0.47E-07
   1      9    11.701     3.724    0.22E-04    0.12E-04    0.26E-07
   1      9    11.701    38.716    0.12E-03    0.50E-03    0.44E-06
   2      9    11.701     3.434    0.48E-04    0.68E-04    0.36E-07
 Optimization of the real space projectors (new method)

 maximal supplied QI-value         = 24.76
 optimisation between [QCUT,QGAM] = [ 11.64, 23.52] = [ 37.91,154.88] Ry 
 Optimized for a Real-space Cutoff    1.07 Angstroem

   l    n(q)    QCUT    max X(q) W(low)/X(q) W(high)/X(q)  e(spline) 
   0      7    11.635     4.906    0.42E-04    0.10E-03    0.40E-07
   0      7    11.635     5.365    0.10E-03    0.31E-03    0.19E-06
   1      7    11.635     2.511    0.38E-04    0.13E-03    0.21E-07
   1      7    11.635     3.801    0.24E-03    0.28E-03    0.21E-06
 PAW_PBE K_sv 06Sep2000                 :
 energy of atom  1       EATOM= -774.7423
 kinetic energy error for atom=    0.0012 (will be added to EATOM!!)
 PAW_PBE F 08Apr2002                    :
 energy of atom  2       EATOM= -659.4942
 kinetic energy error for atom=    0.0313 (will be added to EATOM!!)
 
 
 POSCAR: K4 F4
  positions in direct lattice
  No initial velocities read in
 exchange correlation table for  LEXCH =        8
   RHO(1)=    0.500       N(1)  =     2000
   RHO(2)=  100.500       N(2)  =     4000

 VTST: version 4.2, (08/11/21)

 CHAIN: initializing optimizer
 
 OPT: Using VASP Conjugate-Gradient optimizer
 CHAIN: Read ICHAIN            0
 
 POSCAR: K4 F4
  positions in direct lattice
  No initial velocities read in
 


--------------------------------------------------------------------------------------------------------


 ion  position               nearest neighbor table
   1  0.000  0.000  0.000-   5 2.65   6 2.65   7 2.65   5 2.65   7 2.65   6 2.65   2 3.75   3 3.75
                             2 3.75   2 3.75   4 3.75   3 3.75   2 3.75   3 3.75   4 3.75   4 3.75
   2  0.000  0.500  0.500-   5 2.65   7 2.65   8 2.65   7 2.65   5 2.65   8 2.65   1 3.75   4 3.75
                             1 3.75   1 3.75   3 3.75   3 3.75   1 3.75   3 3.75   4 3.75   4 3.75
   3  0.500  0.000  0.500-   5 2.65   6 2.65   8 2.65   6 2.65   8 2.65   5 2.65   1 3.75   4 3.75
                             1 3.75   2 3.75   4 3.75   2 3.75   4 3.75   1 3.75   2 3.75   4 3.75
   4  0.500  0.500  0.000-   6 2.65   7 2.65   8 2.65   8 2.65   6 2.65   7 2.65   2 3.75   3 3.75
                             1 3.75   1 3.75   3 3.75   2 3.75   3 3.75   1 3.75   2 3.75   3 3.75
   5  0.000  0.000  0.500-   1 2.65   2 2.65   3 2.65   1 2.65   2 2.65   3 2.65
   6  0.500  0.000  0.000-   1 2.65   3 2.65   4 2.65   3 2.65   4 2.65   1 2.65
   7  0.000  0.500  0.000-   1 2.65   2 2.65   4 2.65   2 2.65   1 2.65   4 2.65
   8  0.500  0.500  0.500-   2 2.65   3 2.65   4 2.65   4 2.65   3 2.65   2 2.65
 
  LATTYP: Found a simple cubic cell.
 ALAT       =     5.3088269234
  
  Lattice vectors:
  
 A1 = (   5.3088269234,   0.0000000000,   0.0000000000)
 A2 = (   0.0000000000,   5.3088269234,   0.0000000000)
 A3 = (   0.0000000000,   0.0000000000,   5.3088269234)


Analysis of symmetry for initial positions (statically):
=====================================================================
 Subroutine PRICEL returns following result:
 
  LATTYP: Found a face centered cubic cell.
 ALAT       =     5.3088269234
  
  Lattice vectors:
  
 A1 = (   2.6544134617,  -2.6544134617,   0.0000000000)
 A2 = (   2.6544134617,   0.0000000000,   2.6544134617)
 A3 = (   0.0000000000,  -2.6544134617,   2.6544134617)
 
   4 primitive cells build up your supercell.
 

 Routine SETGRP: Setting up the symmetry group for a 
 simple cubic supercell.


 Subroutine GETGRP returns: Found 48 space group operations
 (whereof 48 operations were pure point group operations)
 out of a pool of 48 trial point group operations.


The static configuration has the point symmetry O_h .


Analysis of symmetry for dynamics (positions and initial velocities):
=====================================================================
 Subroutine PRICEL returns following result:
 
  LATTYP: Found a face centered cubic cell.
 ALAT       =     5.3088269234
  
  Lattice vectors:
  
 A1 = (   2.6544134617,  -2.6544134617,   0.0000000000)
 A2 = (   2.6544134617,   0.0000000000,   2.6544134617)
 A3 = (   0.0000000000,  -2.6544134617,   2.6544134617)
 
   4 primitive cells build up your supercell.
 

 Routine SETGRP: Setting up the symmetry group for a 
 simple cubic supercell.


 Subroutine GETGRP returns: Found 48 space group operations
 (whereof 48 operations were pure point group operations)
 out of a pool of 48 trial point group operations.


The dynamic configuration has the point symmetry O_h .


 Subroutine INISYM returns: Found 48 space group operations
 (whereof 48 operations are pure point group operations),
 and found     4 'primitive' translations


----------------------------------------------------------------------------------------

                                     Primitive cell                                     

  volume of cell :      37.4055

  direct lattice vectors                    reciprocal lattice vectors
     2.654413462 -2.654413462  0.000000000     0.188365531 -0.188365531 -0.188365531
     2.654413462  0.000000000  2.654413462     0.188365531  0.188365531  0.188365531
     0.000000000 -2.654413462  2.654413462    -0.188365531 -0.188365531  0.188365531

  length of vectors
     3.753907518  3.753907518  3.753907518     0.326258669  0.326258669  0.326258669

  position of ions in fractional coordinates (direct lattice)
     0.000000000  0.000000000  0.000000000
     0.500000000  0.500000000  0.500000000

  ion indices of the primitive-cell ions
   primitive index   ion index
                 1           1
                 2           5

----------------------------------------------------------------------------------------

 
 
 KPOINTS: K-Spacing Value to Generate K-Mesh: 0.02

Automatic generation of k-mesh.
 Grid dimensions read from file:
 generate k-points for:    9    9    9

 Generating k-lattice:

  Cartesian coordinates                     Fractional coordinates (reciprocal lattice)
     0.020929503  0.000000000  0.000000000     0.111111111  0.000000000  0.000000000
     0.000000000  0.020929503  0.000000000     0.000000000  0.111111111  0.000000000
     0.000000000  0.000000000  0.020929503     0.000000000  0.000000000  0.111111111

  Length of vectors
     0.020929503  0.020929503  0.020929503

  Shift w.r.t. Gamma in fractional coordinates (k-lattice)
     0.000000000  0.000000000  0.000000000

 
 Subroutine IBZKPT returns following result:
 ===========================================
 
 Found     35 irreducible k-points:
 
 Following reciprocal coordinates:
            Coordinates               Weight
  0.000000  0.000000  0.000000      1.000000
  0.111111  0.000000  0.000000      6.000000
  0.222222  0.000000  0.000000      6.000000
  0.333333  0.000000  0.000000      6.000000
  0.444444  0.000000  0.000000      6.000000
  0.111111  0.111111  0.000000     12.000000
  0.222222  0.111111  0.000000     24.000000
  0.333333  0.111111  0.000000     24.000000
  0.444444  0.111111  0.000000     24.000000
  0.222222  0.222222  0.000000     12.000000
  0.333333  0.222222  0.000000     24.000000
  0.444444  0.222222  0.000000     24.000000
  0.333333  0.333333  0.000000     12.000000
  0.444444  0.333333  0.000000     24.000000
  0.444444  0.444444  0.000000     12.000000
  0.111111  0.111111  0.111111      8.000000
  0.222222  0.111111  0.111111     24.000000
  0.333333  0.111111  0.111111     24.000000
  0.444444  0.111111  0.111111     24.000000
  0.222222  0.222222  0.111111     24.000000
  0.333333  0.222222  0.111111     48.000000
  0.444444  0.222222  0.111111     48.000000
  0.333333  0.333333  0.111111     24.000000
  0.444444  0.333333  0.111111     48.000000
  0.444444  0.444444  0.111111     24.000000
  0.222222  0.222222  0.222222      8.000000
  0.333333  0.222222  0.222222     24.000000
  0.444444  0.222222  0.222222     24.000000
  0.333333  0.333333  0.222222     24.000000
  0.444444  0.333333  0.222222     48.000000
  0.444444  0.444444  0.222222     24.000000
  0.333333  0.333333  0.333333      8.000000
  0.444444  0.333333  0.333333     24.000000
  0.444444  0.444444  0.333333     24.000000
  0.444444  0.444444  0.444444      8.000000
 
 Following cartesian coordinates:
            Coordinates               Weight
  0.000000  0.000000  0.000000      1.000000
  0.020930  0.000000  0.000000      6.000000
  0.041859  0.000000  0.000000      6.000000
  0.062789  0.000000  0.000000      6.000000
  0.083718  0.000000  0.000000      6.000000
  0.020930  0.020930  0.000000     12.000000
  0.041859  0.020930  0.000000     24.000000
  0.062789  0.020930  0.000000     24.000000
  0.083718  0.020930  0.000000     24.000000
  0.041859  0.041859  0.000000     12.000000
  0.062789  0.041859  0.000000     24.000000
  0.083718  0.041859  0.000000     24.000000
  0.062789  0.062789  0.000000     12.000000
  0.083718  0.062789  0.000000     24.000000
  0.083718  0.083718  0.000000     12.000000
  0.020930  0.020930  0.020930      8.000000
  0.041859  0.020930  0.020930     24.000000
  0.062789  0.020930  0.020930     24.000000
  0.083718  0.020930  0.020930     24.000000
  0.041859  0.041859  0.020930     24.000000
  0.062789  0.041859  0.020930     48.000000
  0.083718  0.041859  0.020930     48.000000
  0.062789  0.062789  0.020930     24.000000
  0.083718  0.062789  0.020930     48.000000
  0.083718  0.083718  0.020930     24.000000
  0.041859  0.041859  0.041859      8.000000
  0.062789  0.041859  0.041859     24.000000
  0.083718  0.041859  0.041859     24.000000
  0.062789  0.062789  0.041859     24.000000
  0.083718  0.062789  0.041859     48.000000
  0.083718  0.083718  0.041859     24.000000
  0.062789  0.062789  0.062789      8.000000
  0.083718  0.062789  0.062789     24.000000
  0.083718  0.083718  0.062789     24.000000
  0.083718  0.083718  0.083718      8.000000
 


--------------------------------------------------------------------------------------------------------




 Dimension of arrays:
   k-points           NKPTS =     35   k-points in BZ     NKDIM =     35   number of bands    NBANDS=     38
   number of dos      NEDOS =    301   number of ions     NIONS =      8
   non local maximal  LDIM  =      5   non local SUM 2l+1 LMDIM =     13
   total plane-waves  NPLWV =  64000
   max r-space proj   IRMAX =   4456   max aug-charges    IRDMAX=  20107
   dimension x,y,z NGX =    40 NGY =   40 NGZ =   40
   dimension x,y,z NGXF=    80 NGYF=   80 NGZF=   80
   support grid    NGXF=    80 NGYF=   80 NGZF=   80
   ions per type =               4   4
   NGX,Y,Z   is equivalent  to a cutoff of  12.53, 12.53, 12.53 a.u.
   NGXF,Y,Z  is equivalent  to a cutoff of  25.05, 25.05, 25.05 a.u.

 SYSTEM =  ni3al                                   
 POSCAR =  K4 F4                                   

 Startparameter for this run:
   NWRITE =      2    write-flag & timer
   PREC   = accura    normal or accurate (medium, high low for compatibility)
   ISTART =      0    job   : 0-new  1-cont  2-samecut
   ICHARG =      2    charge: 1-file 2-atom 10-const
   ISPIN  =      1    spin polarized calculation?
   LNONCOLLINEAR =      F non collinear calculations
   LSORBIT =      F    spin-orbit coupling
   INIWAV =      1    electr: 0-lowe 1-rand  2-diag
   LASPH  =      F    aspherical Exc in radial PAW
 Electronic Relaxation 1
   ENCUT  =  530.0 eV  38.95 Ry    6.24 a.u.   9.97  9.97  9.97*2*pi/ulx,y,z
   ENINI  =  530.0     initial cutoff
   ENAUG  =  613.6 eV  augmentation charge cutoff
   NELM   =    150;   NELMIN=  2; NELMDL= -5     # of ELM steps 
   EDIFF  = 0.1E-05   stopping-criterion for ELM
   LREAL  =      T    real-space projection
   NLSPLINE    = F    spline interpolate recip. space projectors
   LCOMPAT=      F    compatible to vasp.4.4
   GGA_COMPAT  = T    GGA compatible to vasp.4.4-vasp.4.6
   LMAXPAW     = -100 max onsite density
   LMAXMIX     =    4 max onsite mixed and CHGCAR
   VOSKOWN=      0    Vosko Wilk Nusair interpolation
   ROPT   =   -0.00025  -0.00025
 Ionic relaxation
   EDIFFG = -.1E-01   stopping-criterion for IOM
   NSW    =    300    number of steps for IOM
   NBLOCK =      1;   KBLOCK =    300    inner block; outer block 
   IBRION =      2    ionic relax: 0-MD 1-quasi-New 2-CG
   NFREE  =      1    steps in history (QN), initial steepest desc. (CG)
   ISIF   =      3    stress and relaxation
   IWAVPR =     11    prediction:  0-non 1-charg 2-wave 3-comb
   ISYM   =      2    0-nonsym 1-usesym 2-fastsym
   LCORR  =      T    Harris-Foulkes like correction to forces

   POTIM  = 0.5000    time-step for ionic-motion
   TEIN   =    0.0    initial temperature
   TEBEG  =    0.0;   TEEND  =   0.0 temperature during run
   SMASS  =  -3.00    Nose mass-parameter (am)
   estimated Nose-frequenzy (Omega)   =  0.10E-29 period in steps = 0.13E+47 mass=  -0.644E-27a.u.
   SCALEE = 1.0000    scale energy and forces
   NPACO  =    256;   APACO  = 10.0  distance and # of slots for P.C.
   PSTRESS=    0.0 pullay stress

  Mass of Ions in am
   POMASS =  39.10 19.00
  Ionic Valenz
   ZVAL   =   9.00  7.00
  Atomic Wigner-Seitz radii
   RWIGS  =  -1.00 -1.00
  virtual crystal weights 
   VCA    =   1.00  1.00
   NELECT =      64.0000    total number of electrons
   NUPDOWN=      -1.0000    fix difference up-down

 DOS related values:
   EMIN   =  10.00;   EMAX   =-10.00  energy-range for DOS
   EFERMI =   0.00
   ISMEAR =     0;   SIGMA  =   0.10  broadening in eV -4-tet -1-fermi 0-gaus

 Electronic relaxation 2 (details)
   IALGO  =     68    algorithm
   LDIAG  =      T    sub-space diagonalisation (order eigenvalues)
   LSUBROT=      F    optimize rotation matrix (better conditioning)
   TURBO    =      0    0=normal 1=particle mesh
   IRESTART =      0    0=no restart 2=restart with 2 vectors
   NREBOOT  =      0    no. of reboots
   NMIN     =      0    reboot dimension
   EREF     =   0.00    reference energy to select bands
   IMIX   =      4    mixing-type and parameters
     AMIX     =   0.40;   BMIX     =  1.00
     AMIX_MAG =   1.60;   BMIX_MAG =  1.00
     AMIN     =   0.01
     WC   =   100.;   INIMIX=   1;  MIXPRE=   1;  MAXMIX= -45

 Intra band minimization:
   WEIMIN = 0.0010     energy-eigenvalue tresh-hold
   EBREAK =  0.66E-08  absolut break condition
   DEPER  =   0.30     relativ break condition  

   TIME   =   0.40     timestep for ELM

  volume/ion in A,a.u.               =      18.70       126.21
  Fermi-wavevector in a.u.,A,eV,Ry     =   1.233492  2.330961 20.701291  1.521502
  Thomas-Fermi vector in A             =   2.368220
 
 Write flags
   LWAVE        =      F    write WAVECAR
   LDOWNSAMPLE  =      F    k-point downsampling of WAVECAR
   LCHARG       =      F    write CHGCAR
   LVTOT        =      F    write LOCPOT, total local potential
   LVHAR        =      F    write LOCPOT, Hartree potential only
   LELF         =      F    write electronic localiz. function (ELF)
   LORBIT       =      0    0 simple, 1 ext, 2 COOP (PROOUT), +10 PAW based schemes


 Dipole corrections
   LMONO  =      F    monopole corrections only (constant potential shift)
   LDIPOL =      F    correct potential (dipole corrections)
   IDIPOL =      0    1-x, 2-y, 3-z, 4-all directions 
   EPSILON=  1.0000000 bulk dielectric constant

 Exchange correlation treatment:
   GGA     =    --    GGA type
   LEXCH   =     8    internal setting for exchange type
   LIBXC   =     F    Libxc                    
   VOSKOWN =     0    Vosko Wilk Nusair interpolation
   LHFCALC =     F    Hartree Fock is set to
   LHFONE  =     F    Hartree Fock one center treatment
   AEXX    =    0.0000 exact exchange contribution

 Linear response parameters
   LEPSILON=     F    determine dielectric tensor
   LRPA    =     F    only Hartree local field effects (RPA)
   LNABLA  =     F    use nabla operator in PAW spheres
   LVEL    =     F    velocity operator in full k-point grid
   CSHIFT  =0.1000    complex shift for real part using Kramers Kronig
   OMEGAMAX=  -1.0    maximum frequency
   DEG_THRESHOLD= 0.2000000E-02 threshold for treating states as degnerate
   RTIME   =   -0.100 relaxation time in fs
  (WPLASMAI=    0.000 imaginary part of plasma frequency in eV, 0.658/RTIME)
   DFIELD  = 0.0000000 0.0000000 0.0000000 field for delta impulse in time
 
  Optional k-point grid parameters
   LKPOINTS_OPT  =     F    use optional k-point grid
   KPOINTS_OPT_MODE=     1    mode for optional k-point grid
 
 Orbital magnetization related:
   ORBITALMAG=     F  switch on orbital magnetization
   LCHIMAG   =     F  perturbation theory with respect to B field
   DQ        =  0.001000  dq finite difference perturbation B field
   LLRAUG    =     F  two centre corrections for induced B field



--------------------------------------------------------------------------------------------------------


 conjugate gradient relaxation of ions
 charge density and potential will be updated during run
 non-spin polarized calculation
 RMM-DIIS sequential band-by-band and
  variant of blocked Davidson during initial phase
 perform sub-space diagonalisation
    before iterative eigenvector-optimisation
 modified Broyden-mixing scheme, WC =      100.0
 initial mixing is a Kerker type mixing with AMIX =  0.4000 and BMIX =      1.0000
 Hartree-type preconditioning will be used
 using additional bands            6
 real space projection scheme for non local part
 use partial core corrections
 calculate Harris-corrections to forces 
   (improved forces if not selfconsistent)
 use gradient corrections 
 use of overlap-Matrix (Vanderbilt PP)
 Gauss-broadening in eV      SIGMA  =   0.10


--------------------------------------------------------------------------------------------------------


  energy-cutoff  :      530.00
  volume of cell :      149.62
      direct lattice vectors                 reciprocal lattice vectors
     5.308826923  0.000000000  0.000000000     0.188365531  0.000000000  0.000000000
     0.000000000  5.308826923  0.000000000     0.000000000  0.188365531  0.000000000
     0.000000000  0.000000000  5.308826923     0.000000000  0.000000000  0.188365531

  length of vectors
     5.308826923  5.308826923  5.308826923     0.188365531  0.188365531  0.188365531


 
 k-points in units of 2pi/SCALE and weight: K-Spacing Value to Generate K-Mesh: 0.02
   0.00000000  0.00000000  0.00000000       0.001
   0.02092950  0.00000000  0.00000000       0.008
   0.04185901  0.00000000  0.00000000       0.008
   0.06278851  0.00000000  0.00000000       0.008
   0.08371801  0.00000000  0.00000000       0.008
   0.02092950  0.02092950  0.00000000       0.016
   0.04185901  0.02092950  0.00000000       0.033
   0.06278851  0.02092950  0.00000000       0.033
   0.08371801  0.02092950  0.00000000       0.033
   0.04185901  0.04185901  0.00000000       0.016
   0.06278851  0.04185901  0.00000000       0.033
   0.08371801  0.04185901  0.00000000       0.033
   0.06278851  0.06278851  0.00000000       0.016
   0.08371801  0.06278851  0.00000000       0.033
   0.08371801  0.08371801  0.00000000       0.016
   0.02092950  0.02092950  0.02092950       0.011
   0.04185901  0.02092950  0.02092950       0.033
   0.06278851  0.02092950  0.02092950       0.033
   0.08371801  0.02092950  0.02092950       0.033
   0.04185901  0.04185901  0.02092950       0.033
   0.06278851  0.04185901  0.02092950       0.066
   0.08371801  0.04185901  0.02092950       0.066
   0.06278851  0.06278851  0.02092950       0.033
   0.08371801  0.06278851  0.02092950       0.066
   0.08371801  0.08371801  0.02092950       0.033
   0.04185901  0.04185901  0.04185901       0.011
   0.06278851  0.04185901  0.04185901       0.033
   0.08371801  0.04185901  0.04185901       0.033
   0.06278851  0.06278851  0.04185901       0.033
   0.08371801  0.06278851  0.04185901       0.066
   0.08371801  0.08371801  0.04185901       0.033
   0.06278851  0.06278851  0.06278851       0.011
   0.08371801  0.06278851  0.06278851       0.033
   0.08371801  0.08371801  0.06278851       0.033
   0.08371801  0.08371801  0.08371801       0.011
 
 k-points in reciprocal lattice and weights: K-Spacing Value to Generate K-Mesh: 0.02
   0.00000000  0.00000000  0.00000000       0.001
   0.11111111  0.00000000  0.00000000       0.008
   0.22222222  0.00000000  0.00000000       0.008
   0.33333333  0.00000000  0.00000000       0.008
   0.44444444  0.00000000  0.00000000       0.008
   0.11111111  0.11111111  0.00000000       0.016
   0.22222222  0.11111111  0.00000000       0.033
   0.33333333  0.11111111  0.00000000       0.033
   0.44444444  0.11111111  0.00000000       0.033
   0.22222222  0.22222222  0.00000000       0.016
   0.33333333  0.22222222  0.00000000       0.033
   0.44444444  0.22222222  0.00000000       0.033
   0.33333333  0.33333333  0.00000000       0.016
   0.44444444  0.33333333  0.00000000       0.033
   0.44444444  0.44444444  0.00000000       0.016
   0.11111111  0.11111111  0.11111111       0.011
   0.22222222  0.11111111  0.11111111       0.033
   0.33333333  0.11111111  0.11111111       0.033
   0.44444444  0.11111111  0.11111111       0.033
   0.22222222  0.22222222  0.11111111       0.033
   0.33333333  0.22222222  0.11111111       0.066
   0.44444444  0.22222222  0.11111111       0.066
   0.33333333  0.33333333  0.11111111       0.033
   0.44444444  0.33333333  0.11111111       0.066
   0.44444444  0.44444444  0.11111111       0.033
   0.22222222  0.22222222  0.22222222       0.011
   0.33333333  0.22222222  0.22222222       0.033
   0.44444444  0.22222222  0.22222222       0.033
   0.33333333  0.33333333  0.22222222       0.033
   0.44444444  0.33333333  0.22222222       0.066
   0.44444444  0.44444444  0.22222222       0.033
   0.33333333  0.33333333  0.33333333       0.011
   0.44444444  0.33333333  0.33333333       0.033
   0.44444444  0.44444444  0.33333333       0.033
   0.44444444  0.44444444  0.44444444       0.011
 
 position of ions in fractional coordinates (direct lattice) 
   0.00000000  0.00000000  0.00000000
   0.00000000  0.50000000  0.50000000
   0.50000000  0.00000000  0.50000000
   0.50000000  0.50000000  0.00000000
   0.00000000  0.00000000  0.50000000
   0.50000000  0.00000000  0.00000000
   0.00000000  0.50000000  0.00000000
   0.50000000  0.50000000  0.50000000
 
 position of ions in cartesian coordinates  (Angst):
   0.00000000  0.00000000  0.00000000
   0.00000000  2.65441346  2.65441346
   2.65441346  0.00000000  2.65441346
   2.65441346  2.65441346  0.00000000
   0.00000000  0.00000000  2.65441346
   2.65441346  0.00000000  0.00000000
   0.00000000  2.65441346  0.00000000
   2.65441346  2.65441346  2.65441346
 


--------------------------------------------------------------------------------------------------------


 k-point   1 :   0.0000 0.0000 0.0000  plane waves:    4139
 k-point   2 :   0.1111 0.0000 0.0000  plane waves:    4116
 k-point   3 :   0.2222 0.0000 0.0000  plane waves:    4124
 k-point   4 :   0.3333 0.0000 0.0000  plane waves:    4128
 k-point   5 :   0.4444 0.0000 0.0000  plane waves:    4132
 k-point   6 :   0.1111 0.1111 0.0000  plane waves:    4122
 k-point   7 :   0.2222 0.1111 0.0000  plane waves:    4129
 k-point   8 :   0.3333 0.1111 0.0000  plane waves:    4140
 k-point   9 :   0.4444 0.1111 0.0000  plane waves:    4146
 k-point  10 :   0.2222 0.2222 0.0000  plane waves:    4126
 k-point  11 :   0.3333 0.2222 0.0000  plane waves:    4142
 k-point  12 :   0.4444 0.2222 0.0000  plane waves:    4151
 k-point  13 :   0.3333 0.3333 0.0000  plane waves:    4160
 k-point  14 :   0.4444 0.3333 0.0000  plane waves:    4150
 k-point  15 :   0.4444 0.4444 0.0000  plane waves:    4144
 k-point  16 :   0.1111 0.1111 0.1111  plane waves:    4118
 k-point  17 :   0.2222 0.1111 0.1111  plane waves:    4136
 k-point  18 :   0.3333 0.1111 0.1111  plane waves:    4141
 k-point  19 :   0.4444 0.1111 0.1111  plane waves:    4142
 k-point  20 :   0.2222 0.2222 0.1111  plane waves:    4131
 k-point  21 :   0.3333 0.2222 0.1111  plane waves:    4149
 k-point  22 :   0.4444 0.2222 0.1111  plane waves:    4145
 k-point  23 :   0.3333 0.3333 0.1111  plane waves:    4159
 k-point  24 :   0.4444 0.3333 0.1111  plane waves:    4147
 k-point  25 :   0.4444 0.4444 0.1111  plane waves:    4155
 k-point  26 :   0.2222 0.2222 0.2222  plane waves:    4130
 k-point  27 :   0.3333 0.2222 0.2222  plane waves:    4145
 k-point  28 :   0.4444 0.2222 0.2222  plane waves:    4167
 k-point  29 :   0.3333 0.3333 0.2222  plane waves:    4154
 k-point  30 :   0.4444 0.3333 0.2222  plane waves:    4158
 k-point  31 :   0.4444 0.4444 0.2222  plane waves:    4146
 k-point  32 :   0.3333 0.3333 0.3333  plane waves:    4131
 k-point  33 :   0.4444 0.3333 0.3333  plane waves:    4145
 k-point  34 :   0.4444 0.4444 0.3333  plane waves:    4150
 k-point  35 :   0.4444 0.4444 0.4444  plane waves:    4158

 maximum and minimum number of plane-waves per node :      4167     4116

 maximum number of plane-waves:      4167
 maximum index in each direction: 
   IXMAX=    9   IYMAX=    9   IZMAX=    9
   IXMIN=  -10   IYMIN=  -10   IZMIN=  -10


 serial   3D FFT for wavefunctions
 parallel 3D FFT for charge:
    minimum data exchange during FFTs selected (reduces bandwidth)


 total amount of memory used by VASP MPI-rank0   106144. kBytes
=======================================================================

   base      :      30000. kBytes
   nonlr-proj:       3186. kBytes
   fftplans  :      17864. kBytes
   grid      :      31769. kBytes
   one-center:         64. kBytes
   wavefun   :      23261. kBytes
 
     INWAV:  cpu time      0.0002: real time      0.0000
 Broyden mixing: mesh for mixing (old mesh)
   NGX = 19   NGY = 19   NGZ = 19
  (NGX  = 80   NGY  = 80   NGZ  = 80)
  gives a total of   6859 points

 initial charge density was supplied:
 charge density of overlapping atoms calculated
 number of electron      64.0000000 magnetization 
 keeping initial charge density in first step


--------------------------------------------------------------------------------------------------------


 Maximum index for non-local projection operator         4337
 Maximum index for augmentation-charges        19381 (set IRDMAX)


--------------------------------------------------------------------------------------------------------


 First call to EWALD:  gamma=   0.334
 Maximum number of real-space cells 3x 3x 3
 Maximum number of reciprocal cells 3x 3x 3

    FEWALD:  cpu time      0.0038: real time      0.0019


--------------------------------------- Iteration      1(   1)  ---------------------------------------


    POTLOK:  cpu time      0.6872: real time      0.0998
    SETDIJ:  cpu time      0.1144: real time      0.0163
     EDDAV:  cpu time      5.0221: real time      0.7266
       DOS:  cpu time      0.0140: real time      0.0020
    --------------------------------------------
      LOOP:  cpu time      5.8386: real time      0.8449

 eigenvalue-minimisations  :  2660
 total energy-change (2. order) : 0.5966813E+03  (-0.3407565E+04)
 number of electron      64.0000000 magnetization 
 augmentation part       64.0000000 magnetization 

 Free energy of the ion-electron system (eV)
  ---------------------------------------------------
  alpha Z        PSCENC =       278.80255919
  Ewald energy   TEWEN  =     -3978.24893297
  -Hartree energ DENC   =     -1512.18937525
  -exchange      EXHF   =         0.00000000
  -V(xc)+E(xc)   XCENC  =       290.43875780
  PAW double counting   =      3756.54632935    -3756.83402536
  entropy T*S    EENTRO =        -0.00823518
  eigenvalues    EBANDS =      -218.64174238
  atomic energy  EATOM  =      5736.81593331
  Solvation  Ediel_sol  =         0.00000000
  ---------------------------------------------------
  free energy    TOTEN  =       596.68126850 eV

  energy without entropy =      596.68950368  energy(sigma->0) =      596.68538609


--------------------------------------------------------------------------------------------------------




--------------------------------------- Iteration      1(   2)  ---------------------------------------


     EDDAV:  cpu time      6.0753: real time      0.8787
       DOS:  cpu time      0.0059: real time      0.0008
    --------------------------------------------
      LOOP:  cpu time      6.0805: real time      0.8795

 eigenvalue-minimisations  :  3418
 total energy-change (2. order) :-0.5944016E+03  (-0.5780892E+03)
 number of electron      64.0000000 magnetization 
 augmentation part       64.0000000 magnetization 

 Free energy of the ion-electron system (eV)
  ---------------------------------------------------
  alpha Z        PSCENC =       278.80255919
  Ewald energy   TEWEN  =     -3978.24893297
  -Hartree energ DENC   =     -1512.18937525
  -exchange      EXHF   =         0.00000000
  -V(xc)+E(xc)   XCENC  =       290.43875780
  PAW double counting   =      3756.54632935    -3756.83402536
  entropy T*S    EENTRO =        -0.00000000
  eigenvalues    EBANDS =      -813.05157707
  atomic energy  EATOM  =      5736.81593331
  Solvation  Ediel_sol  =         0.00000000
  ---------------------------------------------------
  free energy    TOTEN  =         2.27966899 eV

  energy without entropy =        2.27966899  energy(sigma->0) =        2.27966899


--------------------------------------------------------------------------------------------------------




--------------------------------------- Iteration      1(   3)  ---------------------------------------


     EDDAV:  cpu time      5.7207: real time      0.8271
       DOS:  cpu time      0.0059: real time      0.0008
    --------------------------------------------
      LOOP:  cpu time      5.7266: real time      0.8279

 eigenvalue-minimisations  :  3088
 total energy-change (2. order) :-0.3695178E+02  (-0.3681831E+02)
 number of electron      64.0000000 magnetization 
 augmentation part       64.0000000 magnetization 

 Free energy of the ion-electron system (eV)
  ---------------------------------------------------
  alpha Z        PSCENC =       278.80255919
  Ewald energy   TEWEN  =     -3978.24893297
  -Hartree energ DENC   =     -1512.18937525
  -exchange      EXHF   =         0.00000000
  -V(xc)+E(xc)   XCENC  =       290.43875780
  PAW double counting   =      3756.54632935    -3756.83402536
  entropy T*S    EENTRO =        -0.00000000
  eigenvalues    EBANDS =      -850.00335900
  atomic energy  EATOM  =      5736.81593331
  Solvation  Ediel_sol  =         0.00000000
  ---------------------------------------------------
  free energy    TOTEN  =       -34.67211294 eV

  energy without entropy =      -34.67211294  energy(sigma->0) =      -34.67211294


--------------------------------------------------------------------------------------------------------




--------------------------------------- Iteration      1(   4)  ---------------------------------------


     EDDAV:  cpu time      7.9548: real time      1.1506
       DOS:  cpu time      0.0060: real time      0.0009
    --------------------------------------------
      LOOP:  cpu time      7.9608: real time      1.1515

 eigenvalue-minimisations  :  4608
 total energy-change (2. order) :-0.4007453E+01  (-0.4000787E+01)
 number of electron      64.0000000 magnetization 
 augmentation part       64.0000000 magnetization 

 Free energy of the ion-electron system (eV)
  ---------------------------------------------------
  alpha Z        PSCENC =       278.80255919
  Ewald energy   TEWEN  =     -3978.24893297
  -Hartree energ DENC   =     -1512.18937525
  -exchange      EXHF   =         0.00000000
  -V(xc)+E(xc)   XCENC  =       290.43875780
  PAW double counting   =      3756.54632935    -3756.83402536
  entropy T*S    EENTRO =        -0.00000000
  eigenvalues    EBANDS =      -854.01081189
  atomic energy  EATOM  =      5736.81593331
  Solvation  Ediel_sol  =         0.00000000
  ---------------------------------------------------
  free energy    TOTEN  =       -38.67956583 eV

  energy without entropy =      -38.67956583  energy(sigma->0) =      -38.67956583


--------------------------------------------------------------------------------------------------------




--------------------------------------- Iteration      1(   5)  ---------------------------------------


     EDDAV:  cpu time      6.1171: real time      0.8847
       DOS:  cpu time      0.0058: real time      0.0008
    CHARGE:  cpu time      0.4063: real time      0.0583
    MIXING:  cpu time      0.0493: real time      0.0074
    --------------------------------------------
      LOOP:  cpu time      6.5790: real time      0.9513

 eigenvalue-minimisations  :  3346
 total energy-change (2. order) :-0.4768480E-01  (-0.4767927E-01)
 number of electron      63.9999932 magnetization 
 augmentation part       11.7642497 magnetization 

 Broyden mixing:
  rms(total) = 0.12301E+01    rms(broyden)= 0.12298E+01
  rms(prec ) = 0.24897E+01
  weight for this iteration     100.00

 Free energy of the ion-electron system (eV)
  ---------------------------------------------------
  alpha Z        PSCENC =       278.80255919
  Ewald energy   TEWEN  =     -3978.24893297
  -Hartree energ DENC   =     -1512.18937525
  -exchange      EXHF   =         0.00000000
  -V(xc)+E(xc)   XCENC  =       290.43875780
  PAW double counting   =      3756.54632935    -3756.83402536
  entropy T*S    EENTRO =        -0.00000000
  eigenvalues    EBANDS =      -854.05849669
  atomic energy  EATOM  =      5736.81593331
  Solvation  Ediel_sol  =         0.00000000
  ---------------------------------------------------
  free energy    TOTEN  =       -38.72725063 eV

  energy without entropy =      -38.72725063  energy(sigma->0) =      -38.72725063


--------------------------------------------------------------------------------------------------------




--------------------------------------- Iteration      1(   6)  ---------------------------------------


    POTLOK:  cpu time      0.6554: real time      0.0937
    SETDIJ:  cpu time      0.0872: real time      0.0125
    EDDIAG:  cpu time      0.3482: real time      0.0503
  RMM-DIIS:  cpu time      2.1580: real time      0.6386
    ORTHCH:  cpu time      0.0392: real time      0.0204
       DOS:  cpu time      0.0016: real time      0.0008
    CHARGE:  cpu time      0.2721: real time      0.0556
    MIXING:  cpu time      0.0455: real time      0.0065
    --------------------------------------------
      LOOP:  cpu time      3.6073: real time      0.8783

 eigenvalue-minimisations  :  2660
 total energy-change (2. order) : 0.5192748E+01  (-0.2147301E+01)
 number of electron      63.9999938 magnetization 
 augmentation part       11.1802715 magnetization 

 Broyden mixing:
  rms(total) = 0.37225E+00    rms(broyden)= 0.37149E+00
  rms(prec ) = 0.69690E+00
  weight for this iteration     100.00

 eigenvalues of (default mixing * dielectric matrix)
  average eigenvalue GAMMA=   0.8782
  0.8782

 Free energy of the ion-electron system (eV)
  ---------------------------------------------------
  alpha Z        PSCENC =       278.80255919
  Ewald energy   TEWEN  =     -3978.24893297
  -Hartree energ DENC   =     -1585.37244524
  -exchange      EXHF   =         0.00000000
  -V(xc)+E(xc)   XCENC  =       294.92182086
  PAW double counting   =      3918.20160665    -3923.89911813
  entropy T*S    EENTRO =        -0.00000000
  eigenvalues    EBANDS =      -774.75592626
  atomic energy  EATOM  =      5736.81593331
  Solvation  Ediel_sol  =         0.00000000
  ---------------------------------------------------
  free energy    TOTEN  =       -33.53450259 eV

  energy without entropy =      -33.53450259  energy(sigma->0) =      -33.53450259


--------------------------------------------------------------------------------------------------------




--------------------------------------- Iteration      1(   7)  ---------------------------------------


    POTLOK:  cpu time      0.6485: real time      0.0927
    SETDIJ:  cpu time      0.0862: real time      0.0123
    EDDIAG:  cpu time      0.3405: real time      0.0491
  RMM-DIIS:  cpu time      2.2523: real time      0.6866
    ORTHCH:  cpu time      0.0394: real time      0.0205
       DOS:  cpu time      0.0016: real time      0.0008
    CHARGE:  cpu time      0.2702: real time      0.0553
    MIXING:  cpu time      0.0439: real time      0.0063
    --------------------------------------------
      LOOP:  cpu time      3.6826: real time      0.9235

 eigenvalue-minimisations  :  2860
 total energy-change (2. order) :-0.7763724E-01  (-0.2706360E+00)
 number of electron      63.9999939 magnetization 
 augmentation part       11.0976175 magnetization 

 Broyden mixing:
  rms(total) = 0.26318E+00    rms(broyden)= 0.26311E+00
  rms(prec ) = 0.41376E+00
  weight for this iteration     100.00

 eigenvalues of (default mixing * dielectric matrix)
  average eigenvalue GAMMA=   1.5612
  1.1794  1.9430

 Free energy of the ion-electron system (eV)
  ---------------------------------------------------
  alpha Z        PSCENC =       278.80255919
  Ewald energy   TEWEN  =     -3978.24893297
  -Hartree energ DENC   =     -1590.83011162
  -exchange      EXHF   =         0.00000000
  -V(xc)+E(xc)   XCENC  =       295.13683789
  PAW double counting   =      3939.32842240    -3945.59095626
  entropy T*S    EENTRO =        -0.00000000
  eigenvalues    EBANDS =      -769.02589175
  atomic energy  EATOM  =      5736.81593331
  Solvation  Ediel_sol  =         0.00000000
  ---------------------------------------------------
  free energy    TOTEN  =       -33.61213983 eV

  energy without entropy =      -33.61213983  energy(sigma->0) =      -33.61213983


--------------------------------------------------------------------------------------------------------




--------------------------------------- Iteration      1(   8)  ---------------------------------------


    POTLOK:  cpu time      0.6493: real time      0.0929
    SETDIJ:  cpu time      0.0861: real time      0.0123
    EDDIAG:  cpu time      0.3344: real time      0.0482
  RMM-DIIS:  cpu time      2.3033: real time      0.7138
    ORTHCH:  cpu time      0.0396: real time      0.0207
       DOS:  cpu time      0.0016: real time      0.0008
    CHARGE:  cpu time      0.2723: real time      0.0555
    MIXING:  cpu time      0.0432: real time      0.0062
    --------------------------------------------
      LOOP:  cpu time      3.7298: real time      0.9504

 eigenvalue-minimisations  :  2930
 total energy-change (2. order) :-0.7782306E-02  (-0.4689617E-01)
 number of electron      63.9999939 magnetization 
 augmentation part       11.1100408 magnetization 

 Broyden mixing:
  rms(total) = 0.43047E-01    rms(broyden)= 0.43013E-01
  rms(prec ) = 0.10375E+00
  weight for this iteration     100.00

 eigenvalues of (default mixing * dielectric matrix)
  average eigenvalue GAMMA=   1.4420
  2.3682  0.9790  0.9790

 Free energy of the ion-electron system (eV)
  ---------------------------------------------------
  alpha Z        PSCENC =       278.80255919
  Ewald energy   TEWEN  =     -3978.24893297
  -Hartree energ DENC   =     -1587.50485277
  -exchange      EXHF   =         0.00000000
  -V(xc)+E(xc)   XCENC  =       294.86440954
  PAW double counting   =      3950.20307673    -3956.40401946
  entropy T*S    EENTRO =        -0.00000000
  eigenvalues    EBANDS =      -772.14809571
  atomic energy  EATOM  =      5736.81593331
  Solvation  Ediel_sol  =         0.00000000
  ---------------------------------------------------
  free energy    TOTEN  =       -33.61992214 eV

  energy without entropy =      -33.61992214  energy(sigma->0) =      -33.61992214


--------------------------------------------------------------------------------------------------------




--------------------------------------- Iteration      1(   9)  ---------------------------------------


    POTLOK:  cpu time      0.6492: real time      0.0928
    SETDIJ:  cpu time      0.0862: real time      0.0123
    EDDIAG:  cpu time      0.3376: real time      0.0487
  RMM-DIIS:  cpu time      2.5385: real time      0.8329
    ORTHCH:  cpu time      0.0393: real time      0.0205
       DOS:  cpu time      0.0016: real time      0.0008
    CHARGE:  cpu time      0.2710: real time      0.0554
    MIXING:  cpu time      0.0432: real time      0.0062
    --------------------------------------------
      LOOP:  cpu time      3.9667: real time      1.0695

 eigenvalue-minimisations  :  3323
 total energy-change (2. order) :-0.2835957E-01  (-0.1935398E-01)
 number of electron      63.9999939 magnetization 
 augmentation part       11.0786278 magnetization 

 Broyden mixing:
  rms(total) = 0.24914E-01    rms(broyden)= 0.24912E-01
  rms(prec ) = 0.37671E-01
  weight for this iteration     100.00

 eigenvalues of (default mixing * dielectric matrix)
  average eigenvalue GAMMA=   1.9877
  2.9389  2.9389  1.0364  1.0364

 Free energy of the ion-electron system (eV)
  ---------------------------------------------------
  alpha Z        PSCENC =       278.80255919
  Ewald energy   TEWEN  =     -3978.24893297
  -Hartree energ DENC   =     -1591.01197290
  -exchange      EXHF   =         0.00000000
  -V(xc)+E(xc)   XCENC  =       295.08039648
  PAW double counting   =      3960.07798671    -3966.43924570
  entropy T*S    EENTRO =        -0.00000000
  eigenvalues    EBANDS =      -768.72500583
  atomic energy  EATOM  =      5736.81593331
  Solvation  Ediel_sol  =         0.00000000
  ---------------------------------------------------
  free energy    TOTEN  =       -33.64828170 eV

  energy without entropy =      -33.64828170  energy(sigma->0) =      -33.64828170


--------------------------------------------------------------------------------------------------------




--------------------------------------- Iteration      1(  10)  ---------------------------------------


    POTLOK:  cpu time      0.6477: real time      0.0926
    SETDIJ:  cpu time      0.0862: real time      0.0123
    EDDIAG:  cpu time      0.3419: real time      0.0494
  RMM-DIIS:  cpu time      2.4062: real time      0.7652
    ORTHCH:  cpu time      0.0391: real time      0.0204
       DOS:  cpu time      0.0016: real time      0.0008
    CHARGE:  cpu time      0.2691: real time      0.0551
    MIXING:  cpu time      0.0423: real time      0.0060
    --------------------------------------------
      LOOP:  cpu time      3.8340: real time      1.0017

 eigenvalue-minimisations  :  3075
 total energy-change (2. order) :-0.5710700E-02  (-0.4323866E-02)
 number of electron      63.9999939 magnetization 
 augmentation part       11.0580457 magnetization 

 Broyden mixing:
  rms(total) = 0.32642E-01    rms(broyden)= 0.32632E-01
  rms(prec ) = 0.45969E-01
  weight for this iteration     100.00

 eigenvalues of (default mixing * dielectric matrix)
  average eigenvalue GAMMA=   1.6323
  2.6288  2.6288  1.0596  1.0596  0.7850

 Free energy of the ion-electron system (eV)
  ---------------------------------------------------
  alpha Z        PSCENC =       278.80255919
  Ewald energy   TEWEN  =     -3978.24893297
  -Hartree energ DENC   =     -1592.82135763
  -exchange      EXHF   =         0.00000000
  -V(xc)+E(xc)   XCENC  =       295.19842459
  PAW double counting   =      3957.31483291    -3963.44934634
  entropy T*S    EENTRO =        -0.00000000
  eigenvalues    EBANDS =      -767.26610546
  atomic energy  EATOM  =      5736.81593331
  Solvation  Ediel_sol  =         0.00000000
  ---------------------------------------------------
  free energy    TOTEN  =       -33.65399241 eV

  energy without entropy =      -33.65399241  energy(sigma->0) =      -33.65399241


--------------------------------------------------------------------------------------------------------




--------------------------------------- Iteration      1(  11)  ---------------------------------------


    POTLOK:  cpu time      0.6482: real time      0.0927
    SETDIJ:  cpu time      0.0862: real time      0.0123
    EDDIAG:  cpu time      0.3368: real time      0.0486
  RMM-DIIS:  cpu time      2.5310: real time      0.8285
    ORTHCH:  cpu time      0.0396: real time      0.0207
       DOS:  cpu time      0.0016: real time      0.0008
    CHARGE:  cpu time      0.2668: real time      0.0543
    MIXING:  cpu time      0.0423: real time      0.0060
    --------------------------------------------
      LOOP:  cpu time      3.9523: real time      1.0640

 eigenvalue-minimisations  :  3296
 total energy-change (2. order) : 0.6038330E-03  (-0.1496140E-02)
 number of electron      63.9999939 magnetization 
 augmentation part       11.0634388 magnetization 

 Broyden mixing:
  rms(total) = 0.40893E-02    rms(broyden)= 0.40798E-02
  rms(prec ) = 0.60458E-02
  weight for this iteration     100.00

 eigenvalues of (default mixing * dielectric matrix)
  average eigenvalue GAMMA=   1.5317
  2.7045  2.7045  1.0417  1.0417  0.8489  0.8489

 Free energy of the ion-electron system (eV)
  ---------------------------------------------------
  alpha Z        PSCENC =       278.80255919
  Ewald energy   TEWEN  =     -3978.24893297
  -Hartree energ DENC   =     -1591.64993722
  -exchange      EXHF   =         0.00000000
  -V(xc)+E(xc)   XCENC  =       295.12443236
  PAW double counting   =      3957.46537219    -3963.59545920
  entropy T*S    EENTRO =        -0.00000000
  eigenvalues    EBANDS =      -768.36735624
  atomic energy  EATOM  =      5736.81593331
  Solvation  Ediel_sol  =         0.00000000
  ---------------------------------------------------
  free energy    TOTEN  =       -33.65338857 eV

  energy without entropy =      -33.65338857  energy(sigma->0) =      -33.65338857


--------------------------------------------------------------------------------------------------------




--------------------------------------- Iteration      1(  12)  ---------------------------------------


    POTLOK:  cpu time      0.6479: real time      0.0926
    SETDIJ:  cpu time      0.0860: real time      0.0123
    EDDIAG:  cpu time      0.3372: real time      0.0487
  RMM-DIIS:  cpu time      2.9020: real time      1.0221
    ORTHCH:  cpu time      0.0396: real time      0.0207
       DOS:  cpu time      0.0015: real time      0.0008
    CHARGE:  cpu time      0.2655: real time      0.0534
    MIXING:  cpu time      0.0435: real time      0.0062
    --------------------------------------------
      LOOP:  cpu time      4.3233: real time      1.2567

 eigenvalue-minimisations  :  3989
 total energy-change (2. order) :-0.8648581E-03  (-0.8571381E-03)
 number of electron      63.9999939 magnetization 
 augmentation part       11.0606116 magnetization 

 Broyden mixing:
  rms(total) = 0.25922E-02    rms(broyden)= 0.25918E-02
  rms(prec ) = 0.38723E-02
  weight for this iteration     100.00

 eigenvalues of (default mixing * dielectric matrix)
  average eigenvalue GAMMA=   1.5053
  2.6902  2.6902  1.1080  1.1080  1.0580  1.0580  0.8244

 Free energy of the ion-electron system (eV)
  ---------------------------------------------------
  alpha Z        PSCENC =       278.80255919
  Ewald energy   TEWEN  =     -3978.24893297
  -Hartree energ DENC   =     -1591.56970850
  -exchange      EXHF   =         0.00000000
  -V(xc)+E(xc)   XCENC  =       295.11936982
  PAW double counting   =      3957.34587400    -3963.42506531
  entropy T*S    EENTRO =        -0.00000000
  eigenvalues    EBANDS =      -768.49428296
  atomic energy  EATOM  =      5736.81593331
  Solvation  Ediel_sol  =         0.00000000
  ---------------------------------------------------
  free energy    TOTEN  =       -33.65425343 eV

  energy without entropy =      -33.65425343  energy(sigma->0) =      -33.65425343


--------------------------------------------------------------------------------------------------------




--------------------------------------- Iteration      1(  13)  ---------------------------------------


    POTLOK:  cpu time      0.6496: real time      0.0929
    SETDIJ:  cpu time      0.0861: real time      0.0123
    EDDIAG:  cpu time      0.3324: real time      0.0480
  RMM-DIIS:  cpu time      2.9410: real time      1.0336
    ORTHCH:  cpu time      0.0373: real time      0.0189
       DOS:  cpu time      0.0049: real time      0.0025
    CHARGE:  cpu time      0.2666: real time      0.0546
    MIXING:  cpu time      0.0443: real time      0.0063
    --------------------------------------------
      LOOP:  cpu time      4.3622: real time      1.2690

 eigenvalue-minimisations  :  4132
 total energy-change (2. order) :-0.4243112E-03  (-0.3346086E-03)
 number of electron      63.9999939 magnetization 
 augmentation part       11.0556317 magnetization 

 Broyden mixing:
  rms(total) = 0.48026E-02    rms(broyden)= 0.48023E-02
  rms(prec ) = 0.89172E-02
  weight for this iteration     100.00

 eigenvalues of (default mixing * dielectric matrix)
  average eigenvalue GAMMA=   1.8906
  3.6151  3.6151  2.0110  2.0110  1.0661  1.0661  0.8703  0.8703

 Free energy of the ion-electron system (eV)
  ---------------------------------------------------
  alpha Z        PSCENC =       278.80255919
  Ewald energy   TEWEN  =     -3978.24893297
  -Hartree energ DENC   =     -1591.92892085
  -exchange      EXHF   =         0.00000000
  -V(xc)+E(xc)   XCENC  =       295.14173369
  PAW double counting   =      3958.20459107    -3964.24033733
  entropy T*S    EENTRO =        -0.00000000
  eigenvalues    EBANDS =      -768.20130385
  atomic energy  EATOM  =      5736.81593331
  Solvation  Ediel_sol  =         0.00000000
  ---------------------------------------------------
  free energy    TOTEN  =       -33.65467774 eV

  energy without entropy =      -33.65467774  energy(sigma->0) =      -33.65467774


--------------------------------------------------------------------------------------------------------




--------------------------------------- Iteration      1(  14)  ---------------------------------------


    POTLOK:  cpu time      0.6498: real time      0.0929
    SETDIJ:  cpu time      0.0862: real time      0.0123
    EDDIAG:  cpu time      0.3354: real time      0.0484
  RMM-DIIS:  cpu time      2.7884: real time      0.9631
    ORTHCH:  cpu time      0.0393: real time      0.0205
       DOS:  cpu time      0.0016: real time      0.0008
    CHARGE:  cpu time      0.4202: real time      0.0764
    MIXING:  cpu time      0.1810: real time      0.0259
    --------------------------------------------
      LOOP:  cpu time      4.5020: real time      1.2403

 eigenvalue-minimisations  :  3634
 total energy-change (2. order) :-0.8571374E-04  (-0.1680251E-03)
 number of electron      63.9999939 magnetization 
 augmentation part       11.0561147 magnetization 

 Broyden mixing:
  rms(total) = 0.26833E-02    rms(broyden)= 0.26831E-02
  rms(prec ) = 0.37997E-02
  weight for this iteration     100.00

 eigenvalues of (default mixing * dielectric matrix)
  average eigenvalue GAMMA=   1.6452
  2.8694  2.6689  2.6689  1.7033  0.9598  0.9973  0.9973  0.9709  0.9709

 Free energy of the ion-electron system (eV)
  ---------------------------------------------------
  alpha Z        PSCENC =       278.80255919
  Ewald energy   TEWEN  =     -3978.24893297
  -Hartree energ DENC   =     -1591.81471794
  -exchange      EXHF   =         0.00000000
  -V(xc)+E(xc)   XCENC  =       295.13349178
  PAW double counting   =      3957.67013425    -3963.56096891
  entropy T*S    EENTRO =        -0.00000000
  eigenvalues    EBANDS =      -768.45226217
  atomic energy  EATOM  =      5736.81593331
  Solvation  Ediel_sol  =         0.00000000
  ---------------------------------------------------
  free energy    TOTEN  =       -33.65476346 eV

  energy without entropy =      -33.65476346  energy(sigma->0) =      -33.65476346


--------------------------------------------------------------------------------------------------------




--------------------------------------- Iteration      1(  15)  ---------------------------------------


    POTLOK:  cpu time      0.6500: real time      0.0929
    SETDIJ:  cpu time      0.1887: real time      0.0270
    EDDIAG:  cpu time      0.3345: real time      0.0482
  RMM-DIIS:  cpu time      3.0839: real time      1.1119
    ORTHCH:  cpu time      0.0389: real time      0.0202
       DOS:  cpu time      0.0016: real time      0.0008
    CHARGE:  cpu time      0.2704: real time      0.0551
    MIXING:  cpu time      0.0472: real time      0.0067
    --------------------------------------------
      LOOP:  cpu time      4.6152: real time      1.3629

 eigenvalue-minimisations  :  4104
 total energy-change (2. order) :-0.7831968E-04  (-0.8966608E-04)
 number of electron      63.9999939 magnetization 
 augmentation part       11.0551934 magnetization 

 Broyden mixing:
  rms(total) = 0.81407E-03    rms(broyden)= 0.81323E-03
  rms(prec ) = 0.17360E-02
  weight for this iteration     100.00

 eigenvalues of (default mixing * dielectric matrix)
  average eigenvalue GAMMA=   1.6720
  2.9008  2.6700  2.6700  1.8929  1.8929  1.1244  1.1244  0.9096  0.9096  0.6249

 Free energy of the ion-electron system (eV)
  ---------------------------------------------------
  alpha Z        PSCENC =       278.80255919
  Ewald energy   TEWEN  =     -3978.24893297
  -Hartree energ DENC   =     -1591.77621104
  -exchange      EXHF   =         0.00000000
  -V(xc)+E(xc)   XCENC  =       295.13123361
  PAW double counting   =      3957.87502175    -3963.80577246
  entropy T*S    EENTRO =        -0.00000000
  eigenvalues    EBANDS =      -768.44867315
  atomic energy  EATOM  =      5736.81593331
  Solvation  Ediel_sol  =         0.00000000
  ---------------------------------------------------
  free energy    TOTEN  =       -33.65484177 eV

  energy without entropy =      -33.65484177  energy(sigma->0) =      -33.65484177


--------------------------------------------------------------------------------------------------------




--------------------------------------- Iteration      1(  16)  ---------------------------------------


    POTLOK:  cpu time      0.6479: real time      0.0926
    SETDIJ:  cpu time      0.0864: real time      0.0123
    EDDIAG:  cpu time      0.3338: real time      0.0482
WARNING in EDDRMM: call to ZHEGV failed, returncode =   6  3     14
  RMM-DIIS:  cpu time      3.0521: real time      1.0963
    ORTHCH:  cpu time      0.0393: real time      0.0205
       DOS:  cpu time      0.0015: real time      0.0008
    CHARGE:  cpu time      0.2702: real time      0.0551
    MIXING:  cpu time      0.0489: real time      0.0070
    --------------------------------------------
      LOOP:  cpu time      4.4801: real time      1.3328

 eigenvalue-minimisations  :  4122
 total energy-change (2. order) :-0.4600807E-04  (-0.4701640E-04)
 number of electron      63.9999939 magnetization 
 augmentation part       11.0543707 magnetization 

 Broyden mixing:
  rms(total) = 0.84061E-03    rms(broyden)= 0.84038E-03
  rms(prec ) = 0.14318E-02
  weight for this iteration     100.00

 eigenvalues of (default mixing * dielectric matrix)
  average eigenvalue GAMMA=   1.5941
  3.0630  3.0630  2.8039  1.8042  1.8042  1.1218  1.1218  0.9034  0.9034  0.4732
  0.4732

 Free energy of the ion-electron system (eV)
  ---------------------------------------------------
  alpha Z        PSCENC =       278.80255919
  Ewald energy   TEWEN  =     -3978.24893297
  -Hartree energ DENC   =     -1591.74876322
  -exchange      EXHF   =         0.00000000
  -V(xc)+E(xc)   XCENC  =       295.12944605
  PAW double counting   =      3957.80267136    -3963.73866018
  entropy T*S    EENTRO =        -0.00000000
  eigenvalues    EBANDS =      -768.46914132
  atomic energy  EATOM  =      5736.81593331
  Solvation  Ediel_sol  =         0.00000000
  ---------------------------------------------------
  free energy    TOTEN  =       -33.65488778 eV

  energy without entropy =      -33.65488778  energy(sigma->0) =      -33.65488778


--------------------------------------------------------------------------------------------------------




--------------------------------------- Iteration      1(  17)  ---------------------------------------


    POTLOK:  cpu time      0.6491: real time      0.0928
    SETDIJ:  cpu time      0.0861: real time      0.0123
    EDDIAG:  cpu time      0.3426: real time      0.0494
  RMM-DIIS:  cpu time      2.8704: real time      1.0020
    ORTHCH:  cpu time      0.0391: real time      0.0203
       DOS:  cpu time      0.0018: real time      0.0009
    CHARGE:  cpu time      0.2700: real time      0.0550
    MIXING:  cpu time      0.0486: real time      0.0069
    --------------------------------------------
      LOOP:  cpu time      4.3077: real time      1.2396

 eigenvalue-minimisations  :  3710
 total energy-change (2. order) :-0.2673952E-04  (-0.2662766E-04)
 number of electron      63.9999939 magnetization 
 augmentation part       11.0540022 magnetization 

 Broyden mixing:
  rms(total) = 0.71916E-03    rms(broyden)= 0.71884E-03
  rms(prec ) = 0.12647E-02
  weight for this iteration     100.00

 eigenvalues of (default mixing * dielectric matrix)
  average eigenvalue GAMMA=   1.5883
  3.4334  3.4334  2.7265  1.7612  1.7612  1.1205  1.1205  0.8946  0.8946  0.7043
  0.7043  0.5053

 Free energy of the ion-electron system (eV)
  ---------------------------------------------------
  alpha Z        PSCENC =       278.80255919
  Ewald energy   TEWEN  =     -3978.24893297
  -Hartree energ DENC   =     -1591.73366277
  -exchange      EXHF   =         0.00000000
  -V(xc)+E(xc)   XCENC  =       295.12835546
  PAW double counting   =      3957.78644563    -3963.71528902
  entropy T*S    EENTRO =        -0.00000000
  eigenvalues    EBANDS =      -768.49032335
  atomic energy  EATOM  =      5736.81593331
  Solvation  Ediel_sol  =         0.00000000
  ---------------------------------------------------
  free energy    TOTEN  =       -33.65491452 eV

  energy without entropy =      -33.65491452  energy(sigma->0) =      -33.65491452


--------------------------------------------------------------------------------------------------------




--------------------------------------- Iteration      1(  18)  ---------------------------------------


    POTLOK:  cpu time      0.6548: real time      0.0938
    SETDIJ:  cpu time      0.0944: real time      0.0135
    EDDIAG:  cpu time      0.3342: real time      0.0481
  RMM-DIIS:  cpu time      2.8164: real time      0.9746
    ORTHCH:  cpu time      0.0392: real time      0.0204
       DOS:  cpu time      0.0017: real time      0.0009
    CHARGE:  cpu time      0.2699: real time      0.0551
    MIXING:  cpu time      0.0505: real time      0.0072
    --------------------------------------------
      LOOP:  cpu time      4.2611: real time      1.2136

 eigenvalue-minimisations  :  3607
 total energy-change (2. order) :-0.1343635E-04  (-0.1329552E-04)
 number of electron      63.9999939 magnetization 
 augmentation part       11.0536756 magnetization 

 Broyden mixing:
  rms(total) = 0.19659E-03    rms(broyden)= 0.19652E-03
  rms(prec ) = 0.32001E-03
  weight for this iteration     100.00

 eigenvalues of (default mixing * dielectric matrix)
  average eigenvalue GAMMA=   1.6250
  3.4304  3.4304  2.9881  1.8470  1.8470  1.2218  1.2218  1.0825  1.0825  0.8812
  0.8812  0.7183  0.4934

 Free energy of the ion-electron system (eV)
  ---------------------------------------------------
  alpha Z        PSCENC =       278.80255919
  Ewald energy   TEWEN  =     -3978.24893297
  -Hartree energ DENC   =     -1591.72750610
  -exchange      EXHF   =         0.00000000
  -V(xc)+E(xc)   XCENC  =       295.12776408
  PAW double counting   =      3957.74772662    -3963.66039399
  entropy T*S    EENTRO =        -0.00000000
  eigenvalues    EBANDS =      -768.51207809
  atomic energy  EATOM  =      5736.81593331
  Solvation  Ediel_sol  =         0.00000000
  ---------------------------------------------------
  free energy    TOTEN  =       -33.65492796 eV

  energy without entropy =      -33.65492796  energy(sigma->0) =      -33.65492796


--------------------------------------------------------------------------------------------------------




--------------------------------------- Iteration      1(  19)  ---------------------------------------


    POTLOK:  cpu time      0.6491: real time      0.0928
    SETDIJ:  cpu time      0.0863: real time      0.0123
    EDDIAG:  cpu time      0.3374: real time      0.0487
  RMM-DIIS:  cpu time      2.5191: real time      0.8251
    ORTHCH:  cpu time      0.0391: real time      0.0204
       DOS:  cpu time      0.0015: real time      0.0008
    CHARGE:  cpu time      0.2702: real time      0.0550
    MIXING:  cpu time      0.0516: real time      0.0074
    --------------------------------------------
      LOOP:  cpu time      3.9544: real time      1.0623

 eigenvalue-minimisations  :  3024
 total energy-change (2. order) :-0.8442997E-05  (-0.8229527E-05)
 number of electron      63.9999939 magnetization 
 augmentation part       11.0534358 magnetization 

 Broyden mixing:
  rms(total) = 0.26872E-03    rms(broyden)= 0.26864E-03
  rms(prec ) = 0.51018E-03
  weight for this iteration     100.00

 eigenvalues of (default mixing * dielectric matrix)
  average eigenvalue GAMMA=   1.6464
  4.5112  3.1330  3.0075  2.0618  1.5084  1.5084  1.1540  1.1540  0.9846  0.9125
  0.8778  0.8873  0.8873  0.4613

 Free energy of the ion-electron system (eV)
  ---------------------------------------------------
  alpha Z        PSCENC =       278.80255919
  Ewald energy   TEWEN  =     -3978.24893297
  -Hartree energ DENC   =     -1591.73037219
  -exchange      EXHF   =         0.00000000
  -V(xc)+E(xc)   XCENC  =       295.12789156
  PAW double counting   =      3957.76494278    -3963.67340552
  entropy T*S    EENTRO =        -0.00000000
  eigenvalues    EBANDS =      -768.51355256
  atomic energy  EATOM  =      5736.81593331
  Solvation  Ediel_sol  =         0.00000000
  ---------------------------------------------------
  free energy    TOTEN  =       -33.65493640 eV

  energy without entropy =      -33.65493640  energy(sigma->0) =      -33.65493640


--------------------------------------------------------------------------------------------------------




--------------------------------------- Iteration      1(  20)  ---------------------------------------


    POTLOK:  cpu time      0.6488: real time      0.0927
    SETDIJ:  cpu time      0.1285: real time      0.0184
    EDDIAG:  cpu time      0.3393: real time      0.0490
  RMM-DIIS:  cpu time      2.5559: real time      0.8425
    ORTHCH:  cpu time      0.0390: real time      0.0203
       DOS:  cpu time      0.0015: real time      0.0008
    CHARGE:  cpu time      0.2710: real time      0.0551
    MIXING:  cpu time      0.0536: real time      0.0077
    --------------------------------------------
      LOOP:  cpu time      4.0377: real time      1.0864

 eigenvalue-minimisations  :  3072
 total energy-change (2. order) :-0.4296220E-05  (-0.4071542E-05)
 number of electron      63.9999939 magnetization 
 augmentation part       11.0533225 magnetization 

 Broyden mixing:
  rms(total) = 0.68091E-04    rms(broyden)= 0.68088E-04
  rms(prec ) = 0.92157E-04
  weight for this iteration     100.00

 eigenvalues of (default mixing * dielectric matrix)
  average eigenvalue GAMMA=   1.6393
  4.3506  3.1280  3.1280  2.2163  2.2163  1.1087  1.1087  1.1029  1.1029  1.1023
  1.1023  0.8448  0.8448  0.7642  0.4695

 Free energy of the ion-electron system (eV)
  ---------------------------------------------------
  alpha Z        PSCENC =       278.80255919
  Ewald energy   TEWEN  =     -3978.24893297
  -Hartree energ DENC   =     -1591.72076854
  -exchange      EXHF   =         0.00000000
  -V(xc)+E(xc)   XCENC  =       295.12716982
  PAW double counting   =      3957.73975681    -3963.64125481
  entropy T*S    EENTRO =        -0.00000000
  eigenvalues    EBANDS =      -768.52940350
  atomic energy  EATOM  =      5736.81593331
  Solvation  Ediel_sol  =         0.00000000
  ---------------------------------------------------
  free energy    TOTEN  =       -33.65494070 eV

  energy without entropy =      -33.65494070  energy(sigma->0) =      -33.65494070


--------------------------------------------------------------------------------------------------------




--------------------------------------- Iteration      1(  21)  ---------------------------------------


    POTLOK:  cpu time      0.6498: real time      0.0929
    SETDIJ:  cpu time      0.0863: real time      0.0123
    EDDIAG:  cpu time      0.3325: real time      0.0479
  RMM-DIIS:  cpu time      2.2022: real time      0.6624
    ORTHCH:  cpu time      0.0388: real time      0.0202
       DOS:  cpu time      0.0026: real time      0.0013
    CHARGE:  cpu time      0.2710: real time      0.0550
    MIXING:  cpu time      0.0596: real time      0.0085
    --------------------------------------------
      LOOP:  cpu time      3.6427: real time      0.9005

 eigenvalue-minimisations  :  2455
 total energy-change (2. order) :-0.2462028E-05  (-0.2571971E-05)
 number of electron      63.9999939 magnetization 
 augmentation part       11.0531748 magnetization 

 Broyden mixing:
  rms(total) = 0.79275E-04    rms(broyden)= 0.79268E-04
  rms(prec ) = 0.14467E-03
  weight for this iteration     100.00

 eigenvalues of (default mixing * dielectric matrix)
  average eigenvalue GAMMA=   1.6374
  4.5315  3.1120  3.1120  2.3446  2.3446  1.5936  1.2047  1.2047  1.0716  1.0716
  0.9563  0.8702  0.8514  0.8514  0.6231  0.4551

 Free energy of the ion-electron system (eV)
  ---------------------------------------------------
  alpha Z        PSCENC =       278.80255919
  Ewald energy   TEWEN  =     -3978.24893297
  -Hartree energ DENC   =     -1591.72105735
  -exchange      EXHF   =         0.00000000
  -V(xc)+E(xc)   XCENC  =       295.12718161
  PAW double counting   =      3957.74139140    -3963.64314831
  entropy T*S    EENTRO =        -0.00000000
  eigenvalues    EBANDS =      -768.52887004
  atomic energy  EATOM  =      5736.81593331
  Solvation  Ediel_sol  =         0.00000000
  ---------------------------------------------------
  free energy    TOTEN  =       -33.65494316 eV

  energy without entropy =      -33.65494316  energy(sigma->0) =      -33.65494316


--------------------------------------------------------------------------------------------------------




--------------------------------------- Iteration      1(  22)  ---------------------------------------


    POTLOK:  cpu time      0.6502: real time      0.0929
    SETDIJ:  cpu time      0.3256: real time      0.0465
    EDDIAG:  cpu time      0.3368: real time      0.0486
  RMM-DIIS:  cpu time      2.0762: real time      0.5975
    ORTHCH:  cpu time      0.0394: real time      0.0206
       DOS:  cpu time      0.0017: real time      0.0008
    CHARGE:  cpu time      0.2437: real time      0.0562
    MIXING:  cpu time      0.0506: real time      0.0084
    --------------------------------------------
      LOOP:  cpu time      3.7240: real time      0.8715

 eigenvalue-minimisations  :  2219
 total energy-change (2. order) :-0.1400163E-05  (-0.1380835E-05)
 number of electron      63.9999939 magnetization 
 augmentation part       11.0530492 magnetization 

 Broyden mixing:
  rms(total) = 0.67494E-04    rms(broyden)= 0.67470E-04
  rms(prec ) = 0.11328E-03
  weight for this iteration     100.00

 eigenvalues of (default mixing * dielectric matrix)
  average eigenvalue GAMMA=   1.5412
  4.5323  3.1120  3.1120  2.3448  2.3448  1.5936  1.2047  1.2047  1.0716  1.0716
  0.9562  0.8703  0.8514  0.8514  0.6233  0.4551  0.0009

 Free energy of the ion-electron system (eV)
  ---------------------------------------------------
  alpha Z        PSCENC =       278.80255919
  Ewald energy   TEWEN  =     -3978.24893297
  -Hartree energ DENC   =     -1591.71996203
  -exchange      EXHF   =         0.00000000
  -V(xc)+E(xc)   XCENC  =       295.12710421
  PAW double counting   =      3957.73750185    -3963.63853620
  entropy T*S    EENTRO =        -0.00000000
  eigenvalues    EBANDS =      -768.53061192
  atomic energy  EATOM  =      5736.81593331
  Solvation  Ediel_sol  =         0.00000000
  ---------------------------------------------------
  free energy    TOTEN  =       -33.65494456 eV

  energy without entropy =      -33.65494456  energy(sigma->0) =      -33.65494456


--------------------------------------------------------------------------------------------------------




--------------------------------------- Iteration      1(  23)  ---------------------------------------


    POTLOK:  cpu time      0.7639: real time      0.1171
    SETDIJ:  cpu time      0.0861: real time      0.0123
    EDDIAG:  cpu time      0.3326: real time      0.0484
WARNING in EDDRMM: call to ZHEGV failed, returncode =   6  3     27
  RMM-DIIS:  cpu time      1.9718: real time      0.5425
    ORTHCH:  cpu time      0.0391: real time      0.0203
       DOS:  cpu time      0.0020: real time      0.0010
    --------------------------------------------
      LOOP:  cpu time      3.1948: real time      0.7415

 eigenvalue-minimisations  :  1932
 total energy-change (2. order) :-0.8359884E-06  (-0.8222066E-06)
 number of electron      63.9999939 magnetization 
 augmentation part       11.0530492 magnetization 

 Free energy of the ion-electron system (eV)
  ---------------------------------------------------
  alpha Z        PSCENC =       278.80255919
  Ewald energy   TEWEN  =     -3978.24893297
  -Hartree energ DENC   =     -1591.71923282
  -exchange      EXHF   =         0.00000000
  -V(xc)+E(xc)   XCENC  =       295.12704486
  PAW double counting   =      3957.73672196    -3963.63678775
  entropy T*S    EENTRO =        -0.00000000
  eigenvalues    EBANDS =      -768.53225118
  atomic energy  EATOM  =      5736.81593331
  Solvation  Ediel_sol  =         0.00000000
  ---------------------------------------------------
  free energy    TOTEN  =       -33.65494540 eV

  energy without entropy =      -33.65494540  energy(sigma->0) =      -33.65494540


--------------------------------------------------------------------------------------------------------




 average (electrostatic) potential at core
  the test charge radii are     1.1045  0.7167
  (the norm of the test charge is              1.0000)
[...]
  227          m_sumb_d                              0.005272                          4   4
  228        fordep                                0.209214                            4   3
  229          setdij_                               0.209087                         24   4
  230        setdij_                               0.692732                           80   3
  231        set_dd_magatom                        0.000014                            4   3
  232        set_dd_paw                            0.011154                            4   3
  233          m_sumb_d                              0.000296                         28   4
  234        strkin                                0.011810                            4   3
  235          m_sumb_d                              0.000114                          4   4
  236        strelo                                0.011570                            4   3
  237        strnlr                                2.111708                            4   3
  238          rspher_all                            0.156346                         36   4
  239          phaser                                0.500191                        324   4
  240          rpro_isp                              1.332890                        324   4
  241            fftwav_mpi                            0.267303                    12312   5
  242              fftwav                                0.250135                  12312   6
  243                fft3d                                 0.171543                12312   7
  244            rpromu_acc                            1.040650                     3240   5
  245          m_sumb_d                              0.073217                         36   4
  246        fft3d_mpi                             0.087674                           44   3
  247          fftbrc_mpi                            0.066443                         44   4
  248            fftbas_plan_mpi                       0.066413                       44   5
  249              dfftw_execute                         0.044895                    132   6
  250              map_forward                           0.008583                     40   6
  251                map_scatter                           0.005685                   20   7
  252              map_backward                          0.010637                     48   6
  253                map_gather                            0.007242                   24   7
  254        ggaall_grid                           0.075403                            4   3
  255        forhar                                0.078347                            8   3
  256        strehar                               0.006437                            4   3
  257        chggra                                0.048789                            4   3
  258          fft3d_mpi                             0.042570                         12   4
  259            fftbrc_mpi                            0.039996                       12   5
  260              fftbas_plan_mpi                       0.039988                     12   6
  261                map_forward                           0.000114                   16   7
  262                  map_scatter                           0.000024                  8   8
  263                map_backward                          0.000044                    8   7
  264                  map_gather                            0.000012                  4   8
  265          pothar                                0.001133                          4   4
  266        brmix                                 0.030191                            4   3
  267          brpre                                 0.000376                          4   4
  268          setg0                                 0.010733                          4   4
  269          broyd                                 0.008470                          4   4
  270            brget                                 0.001300                      296   5
  271            brsav                                 0.000751                       72   5
  272          m_bcast_z                             0.007188                          4   4
  273          m_bcast_d                             0.000229                          4   4
  274        m_bcast_d                             0.000074                            8   3
  275      potlok                                0.367699                              4   2
  276        fft3d_mpi                             0.097308                           52   3
  277          fftbrc_mpi                            0.072907                         52   4
  278            fftbas_plan_mpi                       0.072871                       52   5
  279              dfftw_execute                         0.049868                    156   6
  280              map_forward                           0.010101                     56   6
  281                map_scatter                           0.006782                   28   7
  282              map_backward                          0.010457                     48   6
  283                map_gather                            0.007101                   24   7
  284        ggaall_grid                           0.076456                            4   3
  285        pothar                                0.013315                            4   3
  286      potlok_metagga                        0.000002                              4   2
  287      set_dd_magatom                        0.000016                              4   2
  288      set_dd_paw                            0.011175                              4   2
  289        m_sumb_d                              0.000317                           28   3
  290      wavpre_noio                           0.123520                              3   2
  291        stufak                                0.008832                            3   3
  292      densta                                0.000640                              1   2
  293        m_sumb_d                              0.000057                            8   3
 
 Flat profile
 ============
 
             routine name                   CPU           calls
 ---------------------------------------------------------------
 i2                                      7.643029       10683
 i3                                      5.776690       10683
 rpromu_acc                              4.461466       16258
 hamiltmu                                3.371005       11938
 fft3d                                   3.369882      195052
 orth1                                   3.339412        4737
 eddav                                   2.896916           8
 potlok                                  2.700400          60
 cnorma                                  2.395020      176013
 newband                                 2.130874       12478
 total_time                              1.924738           1
 w1_gemv                                 1.905359      240348
 m_sumb_d                                1.851984        1435
 eccp                                    1.747346       79191
 phaser                                  1.565905        1008
 setdij_                                 1.450496         165
 w1_copy                                 1.312821      151925
 ggaall_grid                             1.226828          64
 eddiag                                  1.187027          52
 lapack                                  1.175118        1255
 w1_dscal                                1.137442      111394
 choleski                                1.072102         504
 raccmu_                                 1.038485       11938
 fftwav                                  0.952513      126625
 overl_mu                                0.934170       11938
 dfftw_execute                           0.870468        2820
 set_charge                              0.833072          56
 w1_gaxpy                                0.772849       83932
 racc0mu_acc                             0.741534       11938
 w1_dot                                  0.717502       17614
 w1_daxpy                                0.674274       82122
 augmentation_charge                     0.641162          56
 overl1                                  0.470735       60087
 fft3d_mpi                               0.465858       69379
 apply_precond                           0.390479      108234
 kinhamil                                0.293260       68427
 lincom                                  0.287585        1044
 init_hip                                0.284720           1
 fftext_mpi                              0.278852       68427
 elmin                                   0.273056           4
 vhamil                                  0.271307       68427
 eccp_nl                                 0.263125      117342
 rspher_all                              0.222015          53
 zhegv                                   0.204978       23447
 pothar                                  0.201049          64
 fftwav_mpi                              0.191566      126625
 set_dd_paw                              0.174141          64
 force_and_stress                        0.171598           4
 depsum                                  0.160609          56
 setup_precond                           0.154738       20520
 setg0                                   0.149684          60
 map_gather                              0.136690         500
 overl                                   0.133266       17060
 fftbas_plan_mpi                         0.121625         952
 wavpre_noio                             0.114688           3
 map_scatter                             0.111845         452
 m_bcast_z                               0.110355         125
 eddrmm                                  0.108529          52
 soft_charge                             0.078673          56
 forhar                                  0.078347           8
 ggemm                                   0.074652        1615
 map_backward                            0.065041        1000
 pw_charge                               0.055986       16128
 forloc                                  0.053019           4
 map_forward                             0.049167         904
 strnlr                                  0.049064           4
 broyd                                   0.045388          56
 brmix                                   0.042716          56
 rpro_isp                                0.036528         468
 densta                                  0.035565          61
 orthch                                  0.035503          56
 inisym                                  0.032757           1
 proall                                  0.024814           4
 i1                                      0.021010       10683
 fornlr                                  0.016598           4
 hamilt_local                            0.016596       17784
 hip_hipfft_makeplan                     0.016282           6
 stufak                                  0.014980           4
 m_bcast_d                               0.013695          81
 strkin                                  0.011696           4
 strelo                                  0.011570           4
 truncate_high_frequency_w1              0.010136       71163
 brget                                   0.010032        2425
 w1_projall                              0.010004       11578
 brsav                                   0.007102         677
 strehar                                 0.006437           4
 brpre                                   0.005436          56
 chggra                                  0.005086           4
 fft_gq                                  0.002219          56
 fewald                                  0.001504           4
 brgrid                                  0.001082           1
 fftbrc_mpi                              0.000756         952
 rsp                                     0.000388           4
 vectorpot                               0.000241          57
 set_dd_magatom                          0.000237          64
 hip_init_hipblas                        0.000193           1
 shift_bands_between_low_high            0.000162         468
 rcp                                     0.000140           4
 fordep                                  0.000127           4
 posmap                                  0.000121           2
 hip_init_rocsolver                      0.000069           1
 crpa_reader                             0.000050           1
 potlok_metagga                          0.000038          60
 rotate_active_occupied_orbital          0.000009           4
 hip_hipfft_makeplans                    0.000004           3
 redis_pw_over_bands                     0.000000           4
 ---------------------------------------------------------------
  summed up times    70.5054650306702     
 
 Accumulative profile
 ====================
 
             routine name                   CPU           calls
 ---------------------------------------------------------------
 total_time                             70.505465           1
 elmin                                  59.571923           4
 eddrmm                                 39.815854          52
 i2                                     13.840053       10683
 i3                                     11.497204       10683
 hamiltmu                                7.593306       11938
 eddav                                   6.773549           8
 potlok                                  5.531790          60
 force_and_stress                        4.496030           4
 rpromu_acc                              4.461466       16258
 orthch                                  4.282886          56
 newband                                 3.490323       12478
 fftwav_mpi                              3.373744      126625
 fft3d                                   3.369882      195052
 orth1                                   3.339412        4737
 fftwav                                  3.182178      126625
 set_charge                              3.034474          56
 fft3d_mpi                               2.961666       69379
 w1_projall                              2.952791       11578
 raccmu_                                 2.714190       11938
 cnorma                                  2.658145      176013
 eddiag                                  2.469001          52
 w1_gemv                                 2.376094      240348
 strnlr                                  2.111708           4
 rpro_isp                                2.041408         468
 m_sumb_d                                1.851984        1435
 kinhamil                                1.749648       68427
 eccp                                    1.747346       79191
 phaser                                  1.565905        1008
 fftext_mpi                              1.456388       68427
 setdij_                                 1.450496         165
 fftbrc_mpi                              1.355592         952
 fftbas_plan_mpi                         1.354836         952
 w1_copy                                 1.312821      151925
 soft_charge                             1.246924          56
 ggaall_grid                             1.226828          64
 lapack                                  1.175118        1255
 w1_dscal                                1.137442      111394
 choleski                                1.072102         504
 overl_mu                                0.934170       11938
 dfftw_execute                           0.870468        2820
 w1_gaxpy                                0.772849       83932
 augmentation_charge                     0.752001          56
 racc0mu_acc                             0.741534       11938
 w1_dot                                  0.717502       17614
 fornlr                                  0.687240           4
 w1_daxpy                                0.674274       82122
 hamilt_local                            0.529440       17784
 overl1                                  0.470735       60087
 apply_precond                           0.390479      108234
 brmix                                   0.371938          56
 set_dd_paw                              0.343496          64
 proall                                  0.343286           4
 i1                                      0.329364       10683
 lincom                                  0.287585        1044
 init_hip                                0.284720           1
 vhamil                                  0.271307       68427
 eccp_nl                                 0.263125      117342
 rspher_all                              0.222015          53
 fordep                                  0.209214           4
 zhegv                                   0.204978       23447
 depsum                                  0.202477          56
 map_backward                            0.201730        1000
 pothar                                  0.201049          64
 map_forward                             0.161012         904
 setup_precond                           0.154738       20520
 setg0                                   0.149684          60
 map_gather                              0.136690         500
 overl                                   0.133266       17060
 wavpre_noio                             0.123520           3
 map_scatter                             0.111845         452
 m_bcast_z                               0.110355         125
 forhar                                  0.078347           8
 ggemm                                   0.074652        1615
 broyd                                   0.062522          56
 pw_charge                               0.055986       16128
 forloc                                  0.053019           4
 fft_gq                                  0.052717          56
 chggra                                  0.048789           4
 densta                                  0.039125          61
 inisym                                  0.032878           1
 hip_hipfft_makeplans                    0.016286           3
 hip_hipfft_makeplan                     0.016282           6
 stufak                                  0.014980           4
 m_bcast_d                               0.013695          81
 strkin                                  0.011810           4
 strelo                                  0.011570           4
 truncate_high_frequency_w1              0.010136       71163
 brget                                   0.010032        2425
 brsav                                   0.007102         677
 strehar                                 0.006437           4
 brpre                                   0.005436          56
 fewald                                  0.002426           4
 brgrid                                  0.001082           1
 rsp                                     0.000388           4
 vectorpot                               0.000241          57
 set_dd_magatom                          0.000237          64
 hip_init_hipblas                        0.000193           1
 shift_bands_between_low_high            0.000162         468
 rcp                                     0.000140           4
 posmap                                  0.000121           2
 hip_init_rocsolver                      0.000069           1
 crpa_reader                             0.000050           1
 potlok_metagga                          0.000038          60
 rotate_active_occupied_orbital          0.000009           4
 redis_pw_over_bands                     0.000000           4
 ---------------------------------------------------------------
 
Profiling took   0.419070  0.241855  0.002787  0.002693 seconds
Profiling took   0.297901 seconds
