srun: ROUTE: split_hostlist: hl=b01r3n19 tree_width 0
 running on    4 total cores
 distrk:  each k-point on    1 cores,    4 groups
 distr:  one band on    1 cores,    1 groups
 HIP runtime initialized ...    4 DCUs will be used
 Created    4 streams on each DCU
 vasp.6.3.2 27Jun22 (build Mar 15 2023 15:45:48) complex                        
  
 POSCAR found type information on POSCAR K F 
 POSCAR found :  2 types and       8 ions
 Reading from existing POTCAR
 scaLAPACK will be used selectively (only on CPU)
 Reading from existing POTCAR
 -----------------------------------------------------------------------------
|                                                                             |
|               ----> ADVICE to this user running VASP <----                  |
|                                                                             |
|     You have a (more or less) 'small supercell' and for smaller cells       |
|     it is recommended to use the reciprocal-space projection scheme!        |
|     The real-space optimization is not efficient for small cells and it     |
|     is also less accurate ...                                               |
|     Therefore, set LREAL=.FALSE. in the INCAR file.                         |
|                                                                             |
 -----------------------------------------------------------------------------

 LDA part: xc-table for Pade appr. of Perdew
 POSCAR found type information on POSCAR K F 
 POSCAR found :  2 types and       8 ions
 Optimize memory usage for KPAR
 POSCAR, INCAR and KPOINTS ok, starting setup
 FFT: planning ... GRIDC
 FFT: planning ... GRID_SOFT
 FFT: planning ... GRID
 WAVECAR not read
 entering main loop
       N       E                     dE             d eps       ncg     rms          rms(c)
DAV:   1     0.596681268499E+03    0.59668E+03   -0.34076E+04  2660   0.165E+03
DAV:   2     0.227966898893E+01   -0.59440E+03   -0.57809E+03  3418   0.461E+02
DAV:   3    -0.346721129376E+02   -0.36952E+02   -0.36818E+02  3088   0.110E+02
DAV:   4    -0.386795658287E+02   -0.40075E+01   -0.40008E+01  4608   0.218E+01
DAV:   5    -0.387272506264E+02   -0.47685E-01   -0.47679E-01  3346   0.311E+00    0.123E+01
RMM:   6    -0.335345025948E+02    0.51927E+01   -0.21473E+01  2660   0.179E+01    0.372E+00
RMM:   7    -0.336121398300E+02   -0.77637E-01   -0.27064E+00  2860   0.498E+00    0.263E+00
RMM:   8    -0.336199221362E+02   -0.77823E-02   -0.46896E-01  2930   0.374E+00    0.430E-01
RMM:   9    -0.336482817049E+02   -0.28360E-01   -0.19354E-01  3323   0.155E+00    0.249E-01
RMM:  10    -0.336539924051E+02   -0.57107E-02   -0.43239E-02  3075   0.945E-01    0.326E-01
RMM:  11    -0.336533885721E+02    0.60383E-03   -0.14961E-02  3296   0.526E-01    0.409E-02
RMM:  12    -0.336542534301E+02   -0.86486E-03   -0.85714E-03  3989   0.253E-01    0.259E-02
RMM:  13    -0.336546777414E+02   -0.42431E-03   -0.33461E-03  4132   0.154E-01    0.480E-02
RMM:  14    -0.336547634551E+02   -0.85714E-04   -0.16803E-03  3634   0.127E-01    0.268E-02
RMM:  15    -0.336548417748E+02   -0.78320E-04   -0.89666E-04  4104   0.825E-02    0.814E-03
WARNING in EDDRMM: call to ZHEGV failed, returncode =   6  3     14
RMM:  16    -0.336548877829E+02   -0.46008E-04   -0.47016E-04  4122   0.550E-02    0.841E-03
RMM:  17    -0.336549145224E+02   -0.26740E-04   -0.26628E-04  3710   0.394E-02    0.719E-03
RMM:  18    -0.336549279587E+02   -0.13436E-04   -0.13296E-04  3607   0.296E-02    0.197E-03
RMM:  19    -0.336549364017E+02   -0.84430E-05   -0.82295E-05  3024   0.212E-02    0.269E-03
RMM:  20    -0.336549406980E+02   -0.42962E-05   -0.40715E-05  3072   0.166E-02    0.681E-04
RMM:  21    -0.336549431600E+02   -0.24620E-05   -0.25720E-05  2455   0.116E-02    0.793E-04
RMM:  22    -0.336549445602E+02   -0.14002E-05   -0.13808E-05  2219   0.880E-03    0.675E-04
WARNING in EDDRMM: call to ZHEGV failed, returncode =   6  3     27
RMM:  23    -0.336549453961E+02   -0.83599E-06   -0.82221E-06  1932   0.672E-03
   1 F= -.33654945E+02 E0= -.33654945E+02  d E =-.336549E+02
 curvature:   0.00 expect dE= 0.000E+00 dE for cont linesearch  0.000E+00
 trial: gam= 0.00000 g(F)=  0.935E-61 g(S)=  0.806E-01 ort = 0.000E+00 (trialstep = 0.100E+01)
 search vector abs. value=  0.806E-01
 bond charge predicted
       N       E                     dE             d eps       ncg     rms          rms(c)
DAV:   1    -0.345409347301E+02   -0.88599E+00   -0.18455E+01  3074   0.302E+01    0.663E+00
RMM:   2    -0.337669674466E+02    0.77397E+00   -0.32168E+00  2660   0.107E+01    0.161E+00
RMM:   3    -0.337184483400E+02    0.48519E-01   -0.35641E-01  2706   0.342E+00    0.610E-01
RMM:   4    -0.337054772386E+02    0.12971E-01   -0.68370E-02  2903   0.148E+00    0.121E-01
RMM:   5    -0.337069920078E+02   -0.15148E-02   -0.15356E-02  3496   0.655E-01    0.519E-02
RMM:   6    -0.337075667570E+02   -0.57475E-03   -0.39080E-03  3778   0.264E-01    0.386E-02
RMM:   7    -0.337077988209E+02   -0.23206E-03   -0.14115E-03  3954   0.143E-01    0.213E-02
RMM:   8    -0.337078843747E+02   -0.85554E-04   -0.82233E-04  3774   0.115E-01    0.209E-02
RMM:   9    -0.337079050295E+02   -0.20655E-04   -0.29974E-04  3726   0.668E-02    0.643E-03
WARNING in EDDRMM: call to ZHEGV failed, returncode =   6  3     31
RMM:  10    -0.337079206745E+02   -0.15645E-04   -0.14423E-04  3843   0.387E-02    0.523E-03
RMM:  11    -0.337079295448E+02   -0.88703E-05   -0.68760E-05  3121   0.249E-02    0.741E-03
RMM:  12    -0.337079336045E+02   -0.40597E-05   -0.33150E-05  2646   0.178E-02    0.879E-03
RMM:  13    -0.337079358357E+02   -0.22312E-05   -0.18177E-05  2522   0.140E-02    0.103E-02
RMM:  14    -0.337079360890E+02   -0.25328E-06   -0.96735E-06  2396   0.105E-02
   2 F= -.33707936E+02 E0= -.33707936E+02  d E =-.529907E-01
 trial-energy change:   -0.052991  1 .order   -0.054239   -0.080566   -0.027911
 step:   1.6990(harm=  1.5301)  dis= 0.00000  next Energy=   -33.717264 (dE=-0.623E-01)
 bond charge predicted
       N       E                     dE             d eps       ncg     rms          rms(c)
DAV:   1    -0.341199016248E+02   -0.41197E+00   -0.89074E+00  2894   0.209E+01    0.463E+00
RMM:   2    -0.337436033459E+02    0.37630E+00   -0.16073E+00  2660   0.747E+00    0.111E+00
RMM:   3    -0.337210520023E+02    0.22551E-01   -0.17507E-01  2712   0.239E+00    0.429E-01
RMM:   4    -0.337147776107E+02    0.62744E-02   -0.34689E-02  2939   0.104E+00    0.893E-02
RMM:   5    -0.337155782741E+02   -0.80066E-03   -0.82068E-03  3518   0.467E-01    0.383E-02
RMM:   6    -0.337158761130E+02   -0.29784E-03   -0.21052E-03  3766   0.190E-01    0.290E-02
RMM:   7    -0.337160043178E+02   -0.12820E-03   -0.81782E-04  3907   0.108E-01    0.176E-02
RMM:   8    -0.337160465219E+02   -0.42204E-04   -0.48721E-04  3688   0.898E-02    0.156E-02
RMM:   9    -0.337160592367E+02   -0.12715E-04   -0.17524E-04  3685   0.489E-02    0.569E-03
RMM:  10    -0.337160685181E+02   -0.92814E-05   -0.83812E-05  3503   0.288E-02    0.590E-03
WARNING in EDDRMM: call to ZHEGV failed, returncode =   6  3     31
RMM:  11    -0.337160746917E+02   -0.61735E-05   -0.42003E-05  2841   0.193E-02    0.891E-03
RMM:  12    -0.337160757575E+02   -0.10658E-05   -0.21076E-05  2733   0.154E-02    0.643E-03
RMM:  13    -0.337160761408E+02   -0.38330E-06   -0.10717E-05  2369   0.106E-02    0.442E-03
RMM:  14    -0.337160760906E+02    0.50111E-07   -0.56465E-06  2122   0.778E-03
   3 F= -.33716076E+02 E0= -.33716076E+02  d E =-.611307E-01
 curvature:  -0.69 expect dE=-0.132E-03 dE for cont linesearch -0.132E-03
 ZBRENT: interpolating
 opt :   1.6127  next Energy=   -33.716246 (dE=-0.613E-01)
 bond charge predicted
       N       E                     dE             d eps       ncg     rms          rms(c)
DAV:   1    -0.337224800079E+02   -0.64039E-02   -0.13617E-01  2942   0.258E+00    0.577E-01
RMM:   2    -0.337166689326E+02    0.58111E-02   -0.25199E-02  2660   0.932E-01    0.140E-01
RMM:   3    -0.337163097798E+02    0.35915E-03   -0.26525E-03  2703   0.300E-01    0.542E-02
RMM:   4    -0.337162204976E+02    0.89282E-04   -0.54484E-04  2929   0.128E-01    0.109E-02
RMM:   5    -0.337162409231E+02   -0.20426E-04   -0.13247E-04  3445   0.580E-02    0.489E-03
RMM:   6    -0.337162490574E+02   -0.81343E-05   -0.31442E-05  3173   0.228E-02    0.416E-03
RMM:   7    -0.337162549779E+02   -0.59205E-05   -0.11266E-05  2703   0.137E-02    0.244E-03
RMM:   8    -0.337162561284E+02   -0.11505E-05   -0.68119E-06  2435   0.113E-02    0.150E-03
RMM:   9    -0.337162565827E+02   -0.45427E-06   -0.26340E-06  1704   0.593E-03
   4 F= -.33716257E+02 E0= -.33716257E+02  d E =-.613112E-01
 curvature:  -0.88 expect dE=-0.407E-05 dE for cont linesearch -0.407E-05
 trial: gam= 0.00000 g(F)=  0.392E-61 g(S)=  0.460E-05 ort =-0.609E-03 (trialstep = 0.112E+01)
 search vector abs. value=  0.460E-05
 reached required accuracy - stopping structural energy minimisation
 PROFILE, used timers:     293
