<?xml version="1.0" encoding="ISO-8859-1"?>
<modeling>
 <generator>
  <i name="program" type="string">vasp </i>
  <i name="version" type="string">6.3.2  </i>
  <i name="subversion" type="string">27Jun22 (build Mar 15 2023 15:45:48) complex                          parallel </i>
  <i name="platform" type="string">LinuxIFC </i>
  <i name="date" type="string">2024 07 18 </i>
  <i name="time" type="string">10:22:22 </i>
 </generator>
 <incar>
  <i type="string" name="SYSTEM">ni3al</i>
  <i type="int" name="ISTART">     0</i>
  <i type="string" name="PREC">Accurate</i>
  <i type="string" name="ALGO">Fast</i>
  <i name="AMIN">      0.01000000</i>
  <i type="int" name="ICHARG">     2</i>
  <i type="int" name="NELM">   150</i>
  <i type="int" name="IBRION">     2</i>
  <i name="EDIFF">      0.00000100</i>
  <i name="EDIFFG">     -0.01000000</i>
  <i type="int" name="NSW">   300</i>
  <i type="int" name="ISIF">     3</i>
  <i name="ENCUT">    530.00000000</i>
  <i type="string" name="LREAL">Auto</i>
  <i type="int" name="ISMEAR">     0</i>
  <i name="SIGMA">      0.10000000</i>
  <i type="int" name="LMAXMIX">     4</i>
  <i type="logical" name="LWAVE"> F  </i>
  <i type="logical" name="LCHARG"> F  </i>
 </incar>
 <primitive_cell>
  <structure name="primitive_cell" >
   <crystal>
    <varray name="basis" >
     <v>       2.65441346      -2.65441346       0.00000000 </v>
     <v>       2.65441346       0.00000000       2.65441346 </v>
     <v>       0.00000000      -2.65441346       2.65441346 </v>
    </varray>
    <i name="volume">     37.40552109 </i>
    <varray name="rec_basis" >
     <v>       0.18836553      -0.18836553      -0.18836553 </v>
     <v>       0.18836553       0.18836553       0.18836553 </v>
     <v>      -0.18836553      -0.18836553       0.18836553 </v>
    </varray>
   </crystal>
   <varray name="positions" >
    <v>       0.00000000       0.00000000       0.00000000 </v>
    <v>       0.50000000       0.50000000       0.50000000 </v>
   </varray>
  </structure>
  <varray name="primitive_index" >
   <v type="int" >        1 </v>
   <v type="int" >        5 </v>
  </varray>
 </primitive_cell>
 <kpoints>
  <generation param="Gamma">
   <v type="int" name="divisions">       9        9        9 </v>
   <v name="usershift">      0.00000000       0.00000000       0.00000000 </v>
   <v name="genvec1">      0.11111111       0.00000000       0.00000000 </v>
   <v name="genvec2">      0.00000000       0.11111111       0.00000000 </v>
   <v name="genvec3">      0.00000000       0.00000000       0.11111111 </v>
   <v name="shift">      0.00000000       0.00000000       0.00000000 </v>
  </generation>
  <varray name="kpointlist" >
   <v>       0.00000000       0.00000000       0.00000000 </v>
   <v>       0.11111111       0.00000000       0.00000000 </v>
   <v>       0.22222222       0.00000000       0.00000000 </v>
   <v>       0.33333333       0.00000000       0.00000000 </v>
   <v>       0.44444444       0.00000000       0.00000000 </v>
   <v>       0.11111111       0.11111111       0.00000000 </v>
   <v>       0.22222222       0.11111111       0.00000000 </v>
   <v>       0.33333333       0.11111111       0.00000000 </v>
   <v>       0.44444444       0.11111111       0.00000000 </v>
   <v>       0.22222222       0.22222222       0.00000000 </v>
   <v>       0.33333333       0.22222222       0.00000000 </v>
   <v>       0.44444444       0.22222222       0.00000000 </v>
   <v>       0.33333333       0.33333333       0.00000000 </v>
   <v>       0.44444444       0.33333333       0.00000000 </v>
   <v>       0.44444444       0.44444444       0.00000000 </v>
   <v>       0.11111111       0.11111111       0.11111111 </v>
   <v>       0.22222222       0.11111111       0.11111111 </v>
   <v>       0.33333333       0.11111111       0.11111111 </v>
   <v>       0.44444444       0.11111111       0.11111111 </v>
   <v>       0.22222222       0.22222222       0.11111111 </v>
   <v>       0.33333333       0.22222222       0.11111111 </v>
   <v>       0.44444444       0.22222222       0.11111111 </v>
   <v>       0.33333333       0.33333333       0.11111111 </v>
   <v>       0.44444444       0.33333333       0.11111111 </v>
   <v>       0.44444444       0.44444444       0.11111111 </v>
   <v>       0.22222222       0.22222222       0.22222222 </v>
   <v>       0.33333333       0.22222222       0.22222222 </v>
   <v>       0.44444444       0.22222222       0.22222222 </v>
   <v>       0.33333333       0.33333333       0.22222222 </v>
   <v>       0.44444444       0.33333333       0.22222222 </v>
   <v>       0.44444444       0.44444444       0.22222222 </v>
   <v>       0.33333333       0.33333333       0.33333333 </v>
   <v>       0.44444444       0.33333333       0.33333333 </v>
   <v>       0.44444444       0.44444444       0.33333333 </v>
   <v>       0.44444444       0.44444444       0.44444444 </v>
  </varray>
  <varray name="weights" >
   <v>       0.00137174 </v>
   <v>       0.00823045 </v>
   <v>       0.00823045 </v>
   <v>       0.00823045 </v>
   <v>       0.00823045 </v>
   <v>       0.01646091 </v>
   <v>       0.03292181 </v>
   <v>       0.03292181 </v>
   <v>       0.03292181 </v>
   <v>       0.01646091 </v>
   <v>       0.03292181 </v>
   <v>       0.03292181 </v>
   <v>       0.01646091 </v>
   <v>       0.03292181 </v>
   <v>       0.01646091 </v>
   <v>       0.01097394 </v>
   <v>       0.03292181 </v>
   <v>       0.03292181 </v>
   <v>       0.03292181 </v>
   <v>       0.03292181 </v>
   <v>       0.06584362 </v>
   <v>       0.06584362 </v>
   <v>       0.03292181 </v>
   <v>       0.06584362 </v>
   <v>       0.03292181 </v>
   <v>       0.01097394 </v>
   <v>       0.03292181 </v>
   <v>       0.03292181 </v>
   <v>       0.03292181 </v>
   <v>       0.06584362 </v>
   <v>       0.03292181 </v>
   <v>       0.01097394 </v>
   <v>       0.03292181 </v>
   <v>       0.03292181 </v>
   <v>       0.01097394 </v>
  </varray>
 </kpoints>
 <parameters>
  <separator name="general" >
   <i type="string" name="SYSTEM">ni3al</i>
   <i type="logical" name="LCOMPAT"> F  </i>
  </separator>
  <separator name="electronic" >
   <i type="string" name="PREC">accura</i>
   <i name="ENMAX">    530.00000000</i>
   <i name="ENAUG">    613.61400000</i>
   <i name="EDIFF">      0.00000100</i>
   <i type="int" name="IALGO">    68</i>
   <i type="int" name="IWAVPR">    11</i>
   <i type="int" name="NBANDS">    38</i>
   <i type="int" name="NBANDSLOW">    -1</i>
   <i type="int" name="NBANDSHIGH">    -1</i>
   <i name="NELECT">     64.00000000</i>
   <i type="int" name="TURBO">     0</i>
   <i type="int" name="IRESTART">     0</i>
   <i type="int" name="NREBOOT">     0</i>
   <i type="int" name="NMIN">     0</i>
   <i name="EREF">      0.00000000</i>
   <separator name="electronic smearing" >
    <i type="int" name="ISMEAR">     0</i>
    <i name="SIGMA">      0.10000000</i>
    <i name="KSPACING">      0.50000000</i>
    <i type="logical" name="KGAMMA"> T  </i>
    <i type="logical" name="KBLOWUP"> T  </i>
   </separator>
   <separator name="electronic projectors" >
    <i type="logical" name="LREAL"> T  </i>
    <v name="ROPT">     -0.00025000     -0.00025000</v>
    <i type="int" name="LMAXPAW">  -100</i>
    <i type="int" name="LMAXMIX">     4</i>
    <i type="logical" name="NLSPLINE"> F  </i>
   </separator>
   <separator name="electronic startup" >
    <i type="int" name="ISTART">     0</i>
    <i type="int" name="ICHARG">     2</i>
    <i type="int" name="INIWAV">     1</i>
   </separator>
   <separator name="electronic spin" >
    <i type="int" name="ISPIN">     1</i>
    <i type="logical" name="LNONCOLLINEAR"> F  </i>
    <v name="MAGMOM">      1.00000000      1.00000000      1.00000000      1.00000000      1.00000000      1.00000000      1.00000000      1.00000000</v>
    <i name="NUPDOWN">     -1.00000000</i>
    <i type="logical" name="LSORBIT"> F  </i>
    <v name="SAXIS">      0.00000000      0.00000000      1.00000000</v>
    <i type="logical" name="LSPIRAL"> F  </i>
    <v name="QSPIRAL">      0.00000000      0.00000000      0.00000000</v>
    <i type="logical" name="LZEROZ"> F  </i>
   </separator>
   <separator name="electronic exchange-correlation" >
    <i type="logical" name="LASPH"> F  </i>
    <i type="logical" name="LMETAGGA"> F  </i>
   </separator>
   <separator name="electronic convergence" >
    <i type="int" name="NELM">   150</i>
    <i type="int" name="NELMDL">    -5</i>
    <i type="int" name="NELMIN">     2</i>
    <i name="ENINI">    530.00000000</i>
    <separator name="electronic convergence detail" >
     <i type="logical" name="LDIAG"> T  </i>
     <i type="logical" name="LSUBROT"> F  </i>
     <i name="WEIMIN">      0.00100000</i>
     <i name="EBREAK">      0.00000001</i>
     <i name="DEPER">      0.30000000</i>
     <i type="int" name="NRMM">     4</i>
     <i name="TIME">      0.40000000</i>
    </separator>
   </separator>
   <separator name="electronic mixer" >
    <i name="AMIX">      0.40000000</i>
    <i name="BMIX">      1.00000000</i>
    <i name="AMIN">      0.01000000</i>
    <i name="AMIX_MAG">      1.60000000</i>
    <i name="BMIX_MAG">      1.00000000</i>
    <separator name="electronic mixer details" >
     <i type="int" name="IMIX">     4</i>
     <i type="logical" name="MIXFIRST"> F  </i>
     <i type="int" name="MAXMIX">   -45</i>
     <i name="WC">    100.00000000</i>
     <i type="int" name="INIMIX">     1</i>
     <i type="int" name="MIXPRE">     1</i>
     <i type="int" name="MREMOVE">     5</i>
    </separator>
   </separator>
   <separator name="electronic dipolcorrection" >
    <i type="logical" name="LDIPOL"> F  </i>
    <i type="logical" name="LMONO"> F  </i>
    <i type="int" name="IDIPOL">     0</i>
    <i name="EPSILON">      1.00000000</i>
    <v name="DIPOL">   -100.00000000   -100.00000000   -100.00000000</v>
    <i name="EFIELD">      0.00000000</i>
   </separator>
  </separator>
  <separator name="grids" >
   <i type="int" name="NGX">    40</i>
   <i type="int" name="NGY">    40</i>
   <i type="int" name="NGZ">    40</i>
   <i type="int" name="NGXF">    80</i>
   <i type="int" name="NGYF">    80</i>
   <i type="int" name="NGZF">    80</i>
   <i type="logical" name="ADDGRID"> F  </i>
  </separator>
  <separator name="ionic" >
   <i type="int" name="NSW">   300</i>
   <i type="int" name="IBRION">     2</i>
   <i type="int" name="MDALGO">     0</i>
   <i type="int" name="ISIF">     3</i>
   <i name="PSTRESS">      0.00000000</i>
   <i name="EDIFFG">     -0.01000000</i>
   <i type="int" name="NFREE">     1</i>
   <i name="POTIM">      0.50000000</i>
   <i name="SMASS">     -3.00000000</i>
   <i name="SCALEE">      1.00000000</i>
  </separator>
  <separator name="ionic md" >
   <i name="TEBEG">      0.00010000</i>
   <i name="TEEND">      0.00010000</i>
   <i type="int" name="NBLOCK">     1</i>
   <i type="int" name="KBLOCK">   300</i>
   <i type="int" name="NPACO">   256</i>
   <i name="APACO">     10.00000000</i>
  </separator>
  <separator name="symmetry" >
   <i type="int" name="ISYM">     2</i>
   <i name="SYMPREC">      0.00001000</i>
  </separator>
  <separator name="dos" >
   <i type="int" name="LORBIT">     0</i>
   <v name="RWIGS">     -1.00000000     -1.00000000</v>
   <i type="int" name="NEDOS">   301</i>
   <i name="EMIN">     10.00000000</i>
   <i name="EMAX">    -10.00000000</i>
   <i name="EFERMI">      0.00000000</i>
  </separator>
  <separator name="writing" >
   <i type="int" name="NWRITE">     2</i>
   <i type="logical" name="LWAVE"> F  </i>
   <i type="logical" name="LDOWNSAMPLE"> F  </i>
   <i type="logical" name="LCHARG"> F  </i>
   <i type="logical" name="LPARD"> F  </i>
   <i type="logical" name="LVTOT"> F  </i>
   <i type="logical" name="LVHAR"> F  </i>
   <i type="logical" name="LELF"> F  </i>
   <i type="logical" name="LOPTICS"> F  </i>
   <v name="STM">      0.00000000      0.00000000      0.00000000      0.00000000      0.00000000      0.00000000      0.00000000</v>
  </separator>
  <separator name="performance" >
   <i type="int" name="NPAR">     1</i>
   <i type="int" name="NSIM">     4</i>
   <i type="int" name="NBLK">    -1</i>
   <i type="logical" name="LPLANE"> T  </i>
   <i type="logical" name="LSCALAPACK"> T  </i>
   <i type="logical" name="LSCAAWARE"> F  </i>
   <i type="logical" name="LSCALU"> F  </i>
   <i type="logical" name="LASYNC"> F  </i>
   <i type="logical" name="LORBITALREAL"> F  </i>
  </separator>
  <separator name="miscellaneous" >
   <i type="int" name="IDIOT">     3</i>
   <i type="int" name="PHON_NSTRUCT">    -1</i>
   <i type="logical" name="LMUSIC"> F  </i>
   <v name="POMASS">     39.09800000     18.99800000</v>
   <v name="DARWINR">      0.00000000      0.00000000</v>
   <v name="DARWINV">      1.00000000      1.00000000</v>
   <i type="logical" name="LCORR"> T  </i>
  </separator>
  <i type="logical" name="GGA_COMPAT"> T  </i>
  <i type="logical" name="LBERRY"> F  </i>
  <i type="int" name="ICORELEVEL">     0</i>
  <i type="logical" name="LDAU"> F  </i>
  <i type="int" name="I_CONSTRAINED_M">     0</i>
  <separator name="electronic exchange-correlation" >
   <i type="string" name="GGA">--</i>
   <i type="int" name="VOSKOWN">     0</i>
   <i type="logical" name="LHFCALC"> F  </i>
   <i type="string" name="PRECFOCK"></i>
   <i type="logical" name="LSYMGRAD"> F  </i>
   <i type="logical" name="LHFONE"> F  </i>
   <i type="logical" name="LRHFCALC"> F  </i>
   <i type="logical" name="LTHOMAS"> F  </i>
   <i type="logical" name="LMODELHF"> F  </i>
   <i type="logical" name="LFOCKACE"> F  </i>
   <i name="ENCUT4O">     -1.00000000</i>
   <i type="int" name="EXXOEP">     0</i>
   <i type="int" name="FOURORBIT">     0</i>
   <i name="AEXX">      0.00000000</i>
   <i name="HFALPHA">      0.00000000</i>
   <i name="MCALPHA">      0.00000000</i>
   <i name="ALDAX">      1.00000000</i>
   <i name="AGGAX">      1.00000000</i>
   <i name="ALDAC">      1.00000000</i>
   <i name="AGGAC">      1.00000000</i>
   <i type="int" name="NKREDX">     1</i>
   <i type="int" name="NKREDY">     1</i>
   <i type="int" name="NKREDZ">     1</i>
   <i type="logical" name="SHIFTRED"> F  </i>
   <i type="logical" name="ODDONLY"> F  </i>
   <i type="logical" name="EVENONLY"> F  </i>
   <i type="int" name="LMAXFOCK">     0</i>
   <i type="int" name="NMAXFOCKAE">     0</i>
   <i type="logical" name="LFOCKAEDFT"> F  </i>
   <i name="HFSCREEN">      0.00000000</i>
   <i name="HFSCREENC">      0.00000000</i>
   <i type="int" name="NBANDSGWLOW">     0</i>
  </separator>
  <separator name="vdW DFT" >
   <i type="logical" name="LUSE_VDW"> F  </i>
   <i name="Zab_VDW">     -0.84910000</i>
   <i name="PARAM1">      0.12340000</i>
   <i name="PARAM2">      1.00000000</i>
   <i name="PARAM3">      0.00000000</i>
  </separator>
  <separator name="model GW" >
   <i type="int" name="MODEL_GW">     0</i>
   <i name="MODEL_EPS0">     11.22165633</i>
   <i name="MODEL_ALPHA">      1.00000000</i>
  </separator>
  <separator name="linear response parameters" >
   <i type="logical" name="LEPSILON"> F  </i>
   <i type="logical" name="LRPA"> F  </i>
   <i type="logical" name="LNABLA"> F  </i>
   <i type="logical" name="LVEL"> F  </i>
   <i name="CSHIFT">      0.10000000</i>
   <i name="OMEGAMAX">     -1.00000000</i>
   <i name="DEG_THRESHOLD">      0.00200000</i>
   <i name="RTIME">     -0.10000000</i>
   <i name="WPLASMAI">      0.00000000</i>
   <v name="DFIELD">      0.00000000      0.00000000      0.00000000</v>
   <v name="WPLASMA">      0.00000000      0.00000000      0.00000000      0.00000000      0.00000000      0.00000000      0.00000000      0.00000000      0.00000000</v>
  </separator>
  <separator name="orbital magnetization" >
   <i type="logical" name="NUCIND"> F  </i>
   <v name="MAGPOS">      0.00000000      0.00000000      0.00000000</v>
   <i type="logical" name="LNICSALL"> T  </i>
   <i type="logical" name="ORBITALMAG"> F  </i>
   <i type="logical" name="LMAGBLOCH"> F  </i>
   <i type="logical" name="LCHIMAG"> F  </i>
   <i type="logical" name="LGAUGE"> T  </i>
   <i type="int" name="MAGATOM">     0</i>
   <v name="MAGDIPOL">      0.00000000      0.00000000      0.00000000</v>
   <v name="AVECCONST">      0.00000000      0.00000000      0.00000000</v>
  </separator>
  <separator name="response functions" >
   <i type="logical" name="LFINITE_TEMPERATURE"> F  </i>
   <i type="logical" name="LADDER"> F  </i>
   <i type="logical" name="LRPAFORCE"> F  </i>
   <i type="logical" name="LFXC"> F  </i>
   <i type="logical" name="LHARTREE"> T  </i>
   <i type="int" name="IBSE">     0</i>
   <v type="int" name="KPOINT">    -1     0     0     0</v>
   <i type="logical" name="LTCTC"> F  </i>
   <i type="logical" name="LTCTE"> F  </i>
   <i type="logical" name="LTETE"> F  </i>
   <i type="logical" name="LTRIPLET"> F  </i>
   <i type="logical" name="LFXCEPS"> F  </i>
   <i type="logical" name="LFXHEG"> F  </i>
   <i type="int" name="NATURALO">     2</i>
   <i type="logical" name="LHOLEGF"> F  </i>
   <i type="logical" name="L2ORDER"> F  </i>
   <i type="logical" name="LDMP1"> F  </i>
   <i type="logical" name="LMP2LT"> F  </i>
   <i type="logical" name="LSMP2LT"> F  </i>
   <i type="logical" name="LGWLF"> F  </i>
   <i name="ENCUTGW">     -2.00000000</i>
   <i name="ENCUTGWSOFT">     -2.00000000</i>
   <i name="ENCUTLF">     -1.00000000</i>
   <i type="logical" name="LESF_SPLINES"> F  </i>
   <i type="int" name="LMAXMP2">    -1</i>
   <i name="SCISSOR">      0.00000000</i>
   <i type="int" name="NOMEGA">     0</i>
   <i type="int" name="NOMEGAR">     0</i>
   <i type="int" name="NBANDSGW">    -1</i>
   <i type="int" name="NBANDSO">    -1</i>
   <i type="int" name="NBANDSV">    -1</i>
   <i type="int" name="NELMGW">     1</i>
   <i type="int" name="NELMHF">     1</i>
   <i type="int" name="DIM">     3</i>
   <i type="int" name="IESPILON">     4</i>
   <i type="int" name="ANTIRES">     0</i>
   <i name="OMEGAMAX">    -30.00000000</i>
   <i name="OMEGAMIN">    -30.00000000</i>
   <i name="OMEGATL">   -200.00000000</i>
   <i type="int" name="OMEGAGRID">     0</i>
   <i name="CSHIFT">     -0.10000000</i>
   <i type="logical" name="LSELFENERGY"> F  </i>
   <i type="logical" name="LSPECTRAL"> F  </i>
   <i type="logical" name="LSPECTRALGW"> F  </i>
   <i type="logical" name="LSINGLES"> F  </i>
   <i type="logical" name="LFERMIGW"> F  </i>
   <i type="logical" name="ODDONLYGW"> F  </i>
   <i type="logical" name="EVENONLYGW"> F  </i>
   <i type="int" name="NKREDLFX">     1</i>
   <i type="int" name="NKREDLFY">     1</i>
   <i type="int" name="NKREDLFZ">     1</i>
   <i type="int" name="MAXMEM">  2800</i>
   <i type="int" name="TELESCOPE">     0</i>
   <i type="int" name="NTAUPAR">    -1</i>
   <i type="int" name="NOMEGAPAR">    -1</i>
   <i name="DAMP_NEWTON">      0.80000001</i>
   <i name="LAMBDA">      1.00000000</i>
  </separator>
  <separator name="External order field" >
   <i name="OFIELD_KAPPA">      0.00000000</i>
   <v name="OFIELD_K">      0.00000000      0.00000000      0.00000000</v>
   <i name="OFIELD_Q6_NEAR">      0.00000000</i>
   <i name="OFIELD_Q6_FAR">      0.00000000</i>
   <i name="OFIELD_A">      0.00000000</i>
  </separator>
  <separator name="optional k-points parameters" >
   <i type="int" name="KPOINTS_OPT_MODE">     1</i>
   <i type="logical" name="LKPOINTS_OPT"> F  </i>
  </separator>
  <separator name="solvation model" >
   <i type="logical" name="LSOL"> F  </i>
  </separator>
 </parameters>
 <atominfo>
  <atoms>       8 </atoms>
  <types>       2 </types>
  <array name="atoms" >
   <dimension dim="1">ion</dimension>
   <field type="string">element</field>
   <field type="int">atomtype</field>
   <set>
    <rc><c>K </c><c>   1</c></rc>
    <rc><c>K </c><c>   1</c></rc>
    <rc><c>K </c><c>   1</c></rc>
    <rc><c>K </c><c>   1</c></rc>
    <rc><c>F </c><c>   2</c></rc>
    <rc><c>F </c><c>   2</c></rc>
    <rc><c>F </c><c>   2</c></rc>
    <rc><c>F </c><c>   2</c></rc>
   </set>
  </array>
  <array name="atomtypes" >
   <dimension dim="1">type</dimension>
   <field type="int">atomspertype</field>
   <field type="string">element</field>
   <field>mass</field>
   <field>valence</field>
   <field type="string">pseudopotential</field>
   <set>
    <rc><c>   4</c><c>K </c><c>     39.09800000</c><c>      9.00000000</c><c> PAW_PBE K_sv 06Sep2000                 </c></rc>
    <rc><c>   4</c><c>F </c><c>     18.99800000</c><c>      7.00000000</c><c> PAW_PBE F 08Apr2002                    </c></rc>
   </set>
  </array>
 </atominfo>
 <structure name="initialpos" >
  <crystal>
   <varray name="basis" >
    <v>       5.30882692       0.00000000       0.00000000 </v>
    <v>       0.00000000       5.30882692       0.00000000 </v>
    <v>       0.00000000       0.00000000       5.30882692 </v>
   </varray>
   <i name="volume">    149.62208436 </i>
   <varray name="rec_basis" >
    <v>       0.18836553       0.00000000       0.00000000 </v>
    <v>       0.00000000       0.18836553       0.00000000 </v>
    <v>       0.00000000       0.00000000       0.18836553 </v>
   </varray>
  </crystal>
  <varray name="positions" >
   <v>       0.00000000       0.00000000       0.00000000 </v>
   <v>       0.00000000       0.50000000       0.50000000 </v>
   <v>       0.50000000       0.00000000       0.50000000 </v>
   <v>       0.50000000       0.50000000       0.00000000 </v>
   <v>       0.00000000       0.00000000       0.50000000 </v>
   <v>       0.50000000       0.00000000       0.00000000 </v>
   <v>       0.00000000       0.50000000       0.00000000 </v>
   <v>       0.50000000       0.50000000       0.50000000 </v>
  </varray>
 </structure>
 <calculation>
  <scstep>
   <time name="dav">    5.02    0.73</time>
   <time name="total">    5.84    0.84</time>
   <energy>
    <i name="alphaZ">    278.80255919 </i>
    <i name="ewald">  -3978.24893297 </i>
    <i name="hartreedc">  -1512.18937525 </i>
    <i name="XCdc">    290.43875780 </i>
    <i name="pawpsdc">   3756.54632935 </i>
    <i name="pawaedc">  -3756.83402536 </i>
    <i name="eentropy">     -0.00823518 </i>
    <i name="bandstr">   -218.64174238 </i>
    <i name="atom">   5736.81593331 </i>
    <i name="e_fr_energy">    596.68126850 </i>
    <i name="e_wo_entrp">    596.68950368 </i>
    <i name="e_0_energy">    596.68538609 </i>
   </energy>
  </scstep>
  <scstep>
   <time name="dav">    6.08    0.88</time>
   <time name="total">    6.08    0.88</time>
   <energy>
    <i name="e_fr_energy">      2.27966899 </i>
    <i name="e_wo_entrp">      2.27966899 </i>
    <i name="e_0_energy">      2.27966899 </i>
   </energy>
  </scstep>
  <scstep>
   <time name="dav">    5.72    0.83</time>
   <time name="total">    5.73    0.83</time>
   <energy>
    <i name="e_fr_energy">    -34.67211294 </i>
    <i name="e_wo_entrp">    -34.67211294 </i>
    <i name="e_0_energy">    -34.67211294 </i>
   </energy>
  </scstep>
  <scstep>
   <time name="dav">    7.95    1.15</time>
   <time name="total">    7.96    1.15</time>
   <energy>
    <i name="e_fr_energy">    -38.67956583 </i>
    <i name="e_wo_entrp">    -38.67956583 </i>
    <i name="e_0_energy">    -38.67956583 </i>
   </energy>
  </scstep>
  <scstep>
   <time name="dav">    6.12    0.88</time>
   <time name="total">    6.58    0.95</time>
   <energy>
    <i name="e_fr_energy">    -38.72725063 </i>
    <i name="e_wo_entrp">    -38.72725063 </i>
    <i name="e_0_energy">    -38.72725063 </i>
   </energy>
  </scstep>
  <scstep>
   <time name="diag">    0.35    0.05</time>
   <time name="diis">    2.16    0.64</time>
   <time name="orth">    0.04    0.02</time>
   <time name="total">    3.61    0.88</time>
   <energy>
    <i name="e_fr_energy">    -33.53450259 </i>
    <i name="e_wo_entrp">    -33.53450259 </i>
    <i name="e_0_energy">    -33.53450259 </i>
   </energy>
  </scstep>
  <scstep>
   <time name="diag">    0.34    0.05</time>
   <time name="diis">    2.25    0.69</time>
   <time name="orth">    0.04    0.02</time>
   <time name="total">    3.68    0.92</time>
   <energy>
    <i name="e_fr_energy">    -33.61213983 </i>
    <i name="e_wo_entrp">    -33.61213983 </i>
    <i name="e_0_energy">    -33.61213983 </i>
   </energy>
  </scstep>
  <scstep>
   <time name="diag">    0.33    0.05</time>
   <time name="diis">    2.30    0.71</time>
   <time name="orth">    0.04    0.02</time>
   <time name="total">    3.73    0.95</time>
   <energy>
    <i name="e_fr_energy">    -33.61992214 </i>
    <i name="e_wo_entrp">    -33.61992214 </i>
    <i name="e_0_energy">    -33.61992214 </i>
   </energy>
  </scstep>
  <scstep>
   <time name="diag">    0.34    0.05</time>
   <time name="diis">    2.54    0.83</time>
   <time name="orth">    0.04    0.02</time>
   <time name="total">    3.97    1.07</time>
   <energy>
    <i name="e_fr_energy">    -33.64828170 </i>
    <i name="e_wo_entrp">    -33.64828170 </i>
    <i name="e_0_energy">    -33.64828170 </i>
   </energy>
  </scstep>
  <scstep>
   <time name="diag">    0.34    0.05</time>
   <time name="diis">    2.41    0.77</time>
   <time name="orth">    0.04    0.02</time>
   <time name="total">    3.83    1.00</time>
   <energy>
    <i name="e_fr_energy">    -33.65399241 </i>
    <i name="e_wo_entrp">    -33.65399241 </i>
    <i name="e_0_energy">    -33.65399241 </i>
   </energy>
  </scstep>
  <scstep>
   <time name="diag">    0.34    0.05</time>
   <time name="diis">    2.53    0.83</time>
   <time name="orth">    0.04    0.02</time>
   <time name="total">    3.95    1.06</time>
   <energy>
    <i name="e_fr_energy">    -33.65338857 </i>
    <i name="e_wo_entrp">    -33.65338857 </i>
    <i name="e_0_energy">    -33.65338857 </i>
   </energy>
  </scstep>
  <scstep>
   <time name="diag">    0.34    0.05</time>
   <time name="diis">    2.90    1.02</time>
   <time name="orth">    0.04    0.02</time>
   <time name="total">    4.32    1.26</time>
   <energy>
    <i name="e_fr_energy">    -33.65425343 </i>
    <i name="e_wo_entrp">    -33.65425343 </i>
    <i name="e_0_energy">    -33.65425343 </i>
   </energy>
  </scstep>
  <scstep>
   <time name="diag">    0.33    0.05</time>
   <time name="diis">    2.94    1.03</time>
   <time name="orth">    0.04    0.02</time>
   <time name="total">    4.36    1.27</time>
   <energy>
    <i name="e_fr_energy">    -33.65467774 </i>
    <i name="e_wo_entrp">    -33.65467774 </i>
    <i name="e_0_energy">    -33.65467774 </i>
   </energy>
  </scstep>
  <scstep>
   <time name="diag">    0.34    0.05</time>
   <time name="diis">    2.79    0.96</time>
   <time name="orth">    0.04    0.02</time>
   <time name="total">    4.50    1.24</time>
   <energy>
    <i name="e_fr_energy">    -33.65476346 </i>
    <i name="e_wo_entrp">    -33.65476346 </i>
    <i name="e_0_energy">    -33.65476346 </i>
   </energy>
  </scstep>
  <scstep>
   <time name="diag">    0.33    0.05</time>
   <time name="diis">    3.08    1.11</time>
   <time name="orth">    0.04    0.02</time>
   <time name="total">    4.62    1.36</time>
   <energy>
    <i name="e_fr_energy">    -33.65484177 </i>
    <i name="e_wo_entrp">    -33.65484177 </i>
    <i name="e_0_energy">    -33.65484177 </i>
   </energy>
  </scstep>
  <scstep>
   <time name="diag">    0.33    0.05</time>
   <time name="diis">    3.05    1.10</time>
   <time name="orth">    0.04    0.02</time>
   <time name="total">    4.48    1.33</time>
   <energy>
    <i name="e_fr_energy">    -33.65488778 </i>
    <i name="e_wo_entrp">    -33.65488778 </i>
    <i name="e_0_energy">    -33.65488778 </i>
   </energy>
  </scstep>
  <scstep>
   <time name="diag">    0.34    0.05</time>
   <time name="diis">    2.87    1.00</time>
   <time name="orth">    0.04    0.02</time>
   <time name="total">    4.31    1.24</time>
   <energy>
    <i name="e_fr_energy">    -33.65491452 </i>
    <i name="e_wo_entrp">    -33.65491452 </i>
    <i name="e_0_energy">    -33.65491452 </i>
   </energy>
  </scstep>
  <scstep>
   <time name="diag">    0.33    0.05</time>
   <time name="diis">    2.82    0.97</time>
   <time name="orth">    0.04    0.02</time>
   <time name="total">    4.26    1.21</time>
   <energy>
    <i name="e_fr_energy">    -33.65492796 </i>
    <i name="e_wo_entrp">    -33.65492796 </i>
    <i name="e_0_energy">    -33.65492796 </i>
   </energy>
  </scstep>
  <scstep>
   <time name="diag">    0.34    0.05</time>
   <time name="diis">    2.52    0.83</time>
   <time name="orth">    0.04    0.02</time>
   <time name="total">    3.95    1.06</time>
   <energy>
    <i name="e_fr_energy">    -33.65493640 </i>
    <i name="e_wo_entrp">    -33.65493640 </i>
    <i name="e_0_energy">    -33.65493640 </i>
   </energy>
  </scstep>
  <scstep>
   <time name="diag">    0.34    0.05</time>
   <time name="diis">    2.56    0.84</time>
   <time name="orth">    0.04    0.02</time>
   <time name="total">    4.04    1.09</time>
   <energy>
    <i name="e_fr_energy">    -33.65494070 </i>
    <i name="e_wo_entrp">    -33.65494070 </i>
    <i name="e_0_energy">    -33.65494070 </i>
   </energy>
  </scstep>
  <scstep>
   <time name="diag">    0.33    0.05</time>
   <time name="diis">    2.20    0.66</time>
   <time name="orth">    0.04    0.02</time>
   <time name="total">    3.64    0.90</time>
   <energy>
    <i name="e_fr_energy">    -33.65494316 </i>
    <i name="e_wo_entrp">    -33.65494316 </i>
    <i name="e_0_energy">    -33.65494316 </i>
   </energy>
  </scstep>
  <scstep>
   <time name="diag">    0.34    0.05</time>
   <time name="diis">    2.08    0.60</time>
   <time name="orth">    0.04    0.02</time>
   <time name="total">    3.72    0.87</time>
   <energy>
    <i name="e_fr_energy">    -33.65494456 </i>
    <i name="e_wo_entrp">    -33.65494456 </i>
    <i name="e_0_energy">    -33.65494456 </i>
   </energy>
  </scstep>
  <scstep>
   <time name="diag">    0.33    0.05</time>
   <time name="diis">    1.97    0.54</time>
   <time name="orth">    0.04    0.02</time>
   <time name="total">    3.19    0.74</time>
   <energy>
    <i name="alphaZ">    278.80255919 </i>
    <i name="ewald">  -3978.24893297 </i>
    <i name="hartreedc">  -1591.71923282 </i>
    <i name="XCdc">    295.12704486 </i>
    <i name="pawpsdc">   3957.73672196 </i>
    <i name="pawaedc">  -3963.63678775 </i>
    <i name="eentropy">     -0.00000000 </i>
    <i name="bandstr">   -768.53225118 </i>
    <i name="atom">   5736.81593331 </i>
    <i name="e_fr_energy">    -33.65494540 </i>
    <i name="e_wo_entrp">    -33.65494540 </i>
    <i name="e_0_energy">    -33.65494540 </i>
   </energy>
  </scstep>
  <structure>
   <crystal>
    <varray name="basis" >
     <v>       5.30882692       0.00000000       0.00000000 </v>
     <v>       0.00000000       5.30882692       0.00000000 </v>
     <v>       0.00000000       0.00000000       5.30882692 </v>
    </varray>
    <i name="volume">    149.62208436 </i>
    <varray name="rec_basis" >
     <v>       0.18836553       0.00000000       0.00000000 </v>
     <v>       0.00000000       0.18836553       0.00000000 </v>
     <v>       0.00000000       0.00000000       0.18836553 </v>
    </varray>
   </crystal>
   <varray name="positions" >
    <v>       0.00000000       0.00000000       0.00000000 </v>
    <v>       0.00000000       0.50000000       0.50000000 </v>
    <v>       0.50000000       0.00000000       0.50000000 </v>
    <v>       0.50000000       0.50000000       0.00000000 </v>
    <v>       0.00000000       0.00000000       0.50000000 </v>
    <v>       0.50000000       0.00000000       0.00000000 </v>
    <v>       0.00000000       0.50000000       0.00000000 </v>
    <v>       0.50000000       0.50000000       0.50000000 </v>
   </varray>
  </structure>
  <varray name="forces" >
   <v>      -0.00000000       0.00000000       0.00000000 </v>
   <v>      -0.00000000       0.00000000      -0.00000000 </v>
   <v>       0.00000000      -0.00000000       0.00000000 </v>
   <v>       0.00000000       0.00000000      -0.00000000 </v>
   <v>      -0.00000000       0.00000000      -0.00000000 </v>
   <v>      -0.00000000      -0.00000000      -0.00000000 </v>
   <v>       0.00000000       0.00000000       0.00000000 </v>
   <v>       0.00000000      -0.00000000       0.00000000 </v>
  </varray>
  <varray name="stress" >
   <v>      22.59744194      -0.00000000       0.00000000 </v>
   <v>       0.00000000      22.59744194       0.00000000 </v>
   <v>       0.00000000       0.00000000      22.59744194 </v>
  </varray>
  <energy>
   <i name="e_fr_energy">    -33.65494540 </i>
   <i name="e_wo_entrp">    -33.65494540 </i>
   <i name="e_0_energy">    -33.65494540 </i>
  </energy>
  <time name="totalsc">  112.82   25.70</time>
 </calculation>
 <calculation>
  <scstep>
   <time name="dav">    5.76    0.83</time>
   <time name="total">    6.95    1.00</time>
   <energy>
    <i name="alphaZ">    268.42385816 </i>
    <i name="ewald">  -3928.25864049 </i>
    <i name="hartreedc">  -1571.71777295 </i>
    <i name="XCdc">    291.59748245 </i>
    <i name="pawpsdc">   3957.73595485 </i>
    <i name="pawaedc">  -3963.63538422 </i>
    <i name="eentropy">     -0.00000000 </i>
    <i name="bandstr">   -825.50236584 </i>
    <i name="atom">   5736.81593331 </i>
    <i name="e_fr_energy">    -34.54093473 </i>
    <i name="e_wo_entrp">    -34.54093473 </i>
    <i name="e_0_energy">    -34.54093473 </i>
   </energy>
  </scstep>
  <scstep>
   <time name="diag">    0.34    0.05</time>
   <time name="diis">    2.12    0.62</time>
   <time name="orth">    0.04    0.02</time>
   <time name="total">    3.55    0.86</time>
   <energy>
    <i name="e_fr_energy">    -33.76696745 </i>
    <i name="e_wo_entrp">    -33.76696745 </i>
    <i name="e_0_energy">    -33.76696745 </i>
   </energy>
  </scstep>
  <scstep>
   <time name="diag">    0.35    0.05</time>
   <time name="diis">    2.17    0.65</time>
   <time name="orth">    0.04    0.02</time>
   <time name="total">    3.59    0.88</time>
   <energy>
    <i name="e_fr_energy">    -33.71844834 </i>
    <i name="e_wo_entrp">    -33.71844834 </i>
    <i name="e_0_energy">    -33.71844834 </i>
   </energy>
  </scstep>
  <scstep>
   <time name="diag">    0.34    0.05</time>
   <time name="diis">    2.33    0.73</time>
   <time name="orth">    0.04    0.02</time>
   <time name="total">    3.75    0.96</time>
   <energy>
    <i name="e_fr_energy">    -33.70547724 </i>
    <i name="e_wo_entrp">    -33.70547724 </i>
    <i name="e_0_energy">    -33.70547724 </i>
   </energy>
  </scstep>
  <scstep>
   <time name="diag">    0.34    0.05</time>
   <time name="diis">    2.62    0.88</time>
   <time name="orth">    0.04    0.02</time>
   <time name="total">    4.10    1.12</time>
   <energy>
    <i name="e_fr_energy">    -33.70699201 </i>
    <i name="e_wo_entrp">    -33.70699201 </i>
    <i name="e_0_energy">    -33.70699201 </i>
   </energy>
  </scstep>
  <scstep>
   <time name="diag">    0.34    0.05</time>
   <time name="diis">    2.77    0.94</time>
   <time name="orth">    0.04    0.02</time>
   <time name="total">    4.32    1.20</time>
   <energy>
    <i name="e_fr_energy">    -33.70756676 </i>
    <i name="e_wo_entrp">    -33.70756676 </i>
    <i name="e_0_energy">    -33.70756676 </i>
   </energy>
  </scstep>
  <scstep>
   <time name="diag">    0.34    0.05</time>
   <time name="diis">    2.84    0.98</time>
   <time name="orth">    0.04    0.02</time>
   <time name="total">    4.26    1.22</time>
   <energy>
    <i name="e_fr_energy">    -33.70779882 </i>
    <i name="e_wo_entrp">    -33.70779882 </i>
    <i name="e_0_energy">    -33.70779882 </i>
   </energy>
  </scstep>
  <scstep>
   <time name="diag">    0.35    0.05</time>
   <time name="diis">    2.70    0.95</time>
   <time name="orth">    0.04    0.02</time>
   <time name="total">    4.14    1.18</time>
   <energy>
    <i name="e_fr_energy">    -33.70788437 </i>
    <i name="e_wo_entrp">    -33.70788437 </i>
    <i name="e_0_energy">    -33.70788437 </i>
   </energy>
  </scstep>
  <scstep>
   <time name="diag">    0.34    0.05</time>
   <time name="diis">    2.73    0.94</time>
   <time name="orth">    0.04    0.02</time>
   <time name="total">    4.17    1.18</time>
   <energy>
    <i name="e_fr_energy">    -33.70790503 </i>
    <i name="e_wo_entrp">    -33.70790503 </i>
    <i name="e_0_energy">    -33.70790503 </i>
   </energy>
  </scstep>
  <scstep>
   <time name="diag">    0.34    0.05</time>
   <time name="diis">    2.96    1.04</time>
   <time name="orth">    0.04    0.02</time>
   <time name="total">    4.40    1.28</time>
   <energy>
    <i name="e_fr_energy">    -33.70792067 </i>
    <i name="e_wo_entrp">    -33.70792067 </i>
    <i name="e_0_energy">    -33.70792067 </i>
   </energy>
  </scstep>
  <scstep>
   <time name="diag">    0.34    0.05</time>
   <time name="diis">    2.59    0.86</time>
   <time name="orth">    0.04    0.02</time>
   <time name="total">    4.32    1.14</time>
   <energy>
    <i name="e_fr_energy">    -33.70792954 </i>
    <i name="e_wo_entrp">    -33.70792954 </i>
    <i name="e_0_energy">    -33.70792954 </i>
   </energy>
  </scstep>
  <scstep>
   <time name="diag">    0.34    0.05</time>
   <time name="diis">    2.19    0.65</time>
   <time name="orth">    0.04    0.02</time>
   <time name="total">    3.75    0.90</time>
   <energy>
    <i name="e_fr_energy">    -33.70793360 </i>
    <i name="e_wo_entrp">    -33.70793360 </i>
    <i name="e_0_energy">    -33.70793360 </i>
   </energy>
  </scstep>
  <scstep>
   <time name="diag">    0.34    0.05</time>
   <time name="diis">    2.15    0.63</time>
   <time name="orth">    0.04    0.02</time>
   <time name="total">    3.57    0.86</time>
   <energy>
    <i name="e_fr_energy">    -33.70793584 </i>
    <i name="e_wo_entrp">    -33.70793584 </i>
    <i name="e_0_energy">    -33.70793584 </i>
   </energy>
  </scstep>
  <scstep>
   <time name="diag">    0.34    0.05</time>
   <time name="diis">    2.09    0.60</time>
   <time name="orth">    0.04    0.02</time>
   <time name="total">    3.20    0.77</time>
   <energy>
    <i name="alphaZ">    268.42385816 </i>
    <i name="ewald">  -3928.25864049 </i>
    <i name="hartreedc">  -1621.32371173 </i>
    <i name="XCdc">    294.78587943 </i>
    <i name="pawpsdc">   3951.14266022 </i>
    <i name="pawaedc">  -3957.13640735 </i>
    <i name="eentropy">     -0.00000000 </i>
    <i name="bandstr">   -778.15750764 </i>
    <i name="atom">   5736.81593331 </i>
    <i name="e_fr_energy">    -33.70793609 </i>
    <i name="e_wo_entrp">    -33.70793609 </i>
    <i name="e_0_energy">    -33.70793609 </i>
   </energy>
  </scstep>
  <structure>
   <crystal>
    <varray name="basis" >
     <v>       5.37638607      -0.00000000       0.00000000 </v>
     <v>       0.00000000       5.37638607       0.00000000 </v>
     <v>       0.00000000       0.00000000       5.37638607 </v>
    </varray>
    <i name="volume">    155.40727385 </i>
    <varray name="rec_basis" >
     <v>       0.18599855      -0.00000000      -0.00000000 </v>
     <v>       0.00000000       0.18599855      -0.00000000 </v>
     <v>      -0.00000000      -0.00000000       0.18599855 </v>
    </varray>
   </crystal>
   <varray name="positions" >
    <v>      -0.00000000       0.00000000       0.00000000 </v>
    <v>      -0.00000000       0.50000000       0.50000000 </v>
    <v>       0.50000000      -0.00000000       0.50000000 </v>
    <v>       0.50000000       0.50000000      -0.00000000 </v>
    <v>      -0.00000000       0.00000000       0.50000000 </v>
    <v>       0.50000000      -0.00000000      -0.00000000 </v>
    <v>       0.00000000       0.50000000       0.00000000 </v>
    <v>       0.50000000       0.50000000       0.50000000 </v>
   </varray>
  </structure>
  <varray name="forces" >
   <v>      -0.00000000       0.00000000       0.00000000 </v>
   <v>      -0.00000000       0.00000000       0.00000000 </v>
   <v>      -0.00000000      -0.00000000      -0.00000000 </v>
   <v>       0.00000000      -0.00000000       0.00000000 </v>
   <v>       0.00000000      -0.00000000       0.00000000 </v>
   <v>       0.00000000       0.00000000      -0.00000000 </v>
   <v>       0.00000000      -0.00000000       0.00000000 </v>
   <v>      -0.00000000       0.00000000       0.00000000 </v>
  </varray>
  <varray name="stress" >
   <v>       7.53728864       0.00000000      -0.00000000 </v>
   <v>       0.00000000       7.53728864      -0.00000000 </v>
   <v>       0.00000000       0.00000000       7.53728864 </v>
  </varray>
  <energy>
   <i name="e_fr_energy">    -33.70793609 </i>
   <i name="e_wo_entrp">    -33.70793609 </i>
   <i name="e_0_energy">    -33.70793609 </i>
  </energy>
  <time name="totalsc">   66.08   16.03</time>
 </calculation>
 <calculation>
  <scstep>
   <time name="dav">    5.30    0.76</time>
   <time name="total">    6.44    0.93</time>
   <energy>
    <i name="alphaZ">    261.47351669 </i>
    <i name="ewald">  -3894.05671323 </i>
    <i name="hartreedc">  -1607.20089218 </i>
    <i name="XCdc">    292.34284502 </i>
    <i name="pawpsdc">   3951.13497058 </i>
    <i name="pawaedc">  -3957.13307761 </i>
    <i name="eentropy">     -0.00000000 </i>
    <i name="bandstr">   -817.49648421 </i>
    <i name="atom">   5736.81593331 </i>
    <i name="e_fr_energy">    -34.11990162 </i>
    <i name="e_wo_entrp">    -34.11990162 </i>
    <i name="e_0_energy">    -34.11990162 </i>
   </energy>
  </scstep>
  <scstep>
   <time name="diag">    0.34    0.05</time>
   <time name="diis">    2.14    0.62</time>
   <time name="orth">    0.04    0.02</time>
   <time name="total">    3.55    0.86</time>
   <energy>
    <i name="e_fr_energy">    -33.74360335 </i>
    <i name="e_wo_entrp">    -33.74360335 </i>
    <i name="e_0_energy">    -33.74360335 </i>
   </energy>
  </scstep>
  <scstep>
   <time name="diag">    0.34    0.05</time>
   <time name="diis">    2.18    0.64</time>
   <time name="orth">    0.04    0.02</time>
   <time name="total">    3.60    0.88</time>
   <energy>
    <i name="e_fr_energy">    -33.72105200 </i>
    <i name="e_wo_entrp">    -33.72105200 </i>
    <i name="e_0_energy">    -33.72105200 </i>
   </energy>
  </scstep>
  <scstep>
   <time name="diag">    0.34    0.05</time>
   <time name="diis">    2.37    0.74</time>
   <time name="orth">    0.04    0.02</time>
   <time name="total">    3.92    0.99</time>
   <energy>
    <i name="e_fr_energy">    -33.71477761 </i>
    <i name="e_wo_entrp">    -33.71477761 </i>
    <i name="e_0_energy">    -33.71477761 </i>
   </energy>
  </scstep>
  <scstep>
   <time name="diag">    0.34    0.05</time>
   <time name="diis">    2.67    0.89</time>
   <time name="orth">    0.04    0.02</time>
   <time name="total">    4.08    1.13</time>
   <energy>
    <i name="e_fr_energy">    -33.71557827 </i>
    <i name="e_wo_entrp">    -33.71557827 </i>
    <i name="e_0_energy">    -33.71557827 </i>
   </energy>
  </scstep>
  <scstep>
   <time name="diag">    0.34    0.05</time>
   <time name="diis">    2.74    0.93</time>
   <time name="orth">    0.04    0.02</time>
   <time name="total">    4.16    1.17</time>
   <energy>
    <i name="e_fr_energy">    -33.71587611 </i>
    <i name="e_wo_entrp">    -33.71587611 </i>
    <i name="e_0_energy">    -33.71587611 </i>
   </energy>
  </scstep>
  <scstep>
   <time name="diag">    0.34    0.05</time>
   <time name="diis">    2.81    0.97</time>
   <time name="orth">    0.04    0.02</time>
   <time name="total">    4.25    1.20</time>
   <energy>
    <i name="e_fr_energy">    -33.71600432 </i>
    <i name="e_wo_entrp">    -33.71600432 </i>
    <i name="e_0_energy">    -33.71600432 </i>
   </energy>
  </scstep>
  <scstep>
   <time name="diag">    0.34    0.05</time>
   <time name="diis">    2.71    0.91</time>
   <time name="orth">    0.04    0.02</time>
   <time name="total">    4.13    1.15</time>
   <energy>
    <i name="e_fr_energy">    -33.71604652 </i>
    <i name="e_wo_entrp">    -33.71604652 </i>
    <i name="e_0_energy">    -33.71604652 </i>
   </energy>
  </scstep>
  <scstep>
   <time name="diag">    0.34    0.05</time>
   <time name="diis">    2.69    0.90</time>
   <time name="orth">    0.04    0.02</time>
   <time name="total">    4.11    1.14</time>
   <energy>
    <i name="e_fr_energy">    -33.71605924 </i>
    <i name="e_wo_entrp">    -33.71605924 </i>
    <i name="e_0_energy">    -33.71605924 </i>
   </energy>
  </scstep>
  <scstep>
   <time name="diag">    0.34    0.05</time>
   <time name="diis">    2.61    0.86</time>
   <time name="orth">    0.04    0.02</time>
   <time name="total">    4.03    1.10</time>
   <energy>
    <i name="e_fr_energy">    -33.71606852 </i>
    <i name="e_wo_entrp">    -33.71606852 </i>
    <i name="e_0_energy">    -33.71606852 </i>
   </energy>
  </scstep>
  <scstep>
   <time name="diag">    0.34    0.05</time>
   <time name="diis">    2.29    0.70</time>
   <time name="orth">    0.04    0.02</time>
   <time name="total">    3.72    0.93</time>
   <energy>
    <i name="e_fr_energy">    -33.71607469 </i>
    <i name="e_wo_entrp">    -33.71607469 </i>
    <i name="e_0_energy">    -33.71607469 </i>
   </energy>
  </scstep>
  <scstep>
   <time name="diag">    0.34    0.05</time>
   <time name="diis">    2.32    0.71</time>
   <time name="orth">    0.04    0.02</time>
   <time name="total">    3.74    0.95</time>
   <energy>
    <i name="e_fr_energy">    -33.71607576 </i>
    <i name="e_wo_entrp">    -33.71607576 </i>
    <i name="e_0_energy">    -33.71607576 </i>
   </energy>
  </scstep>
  <scstep>
   <time name="diag">    0.34    0.05</time>
   <time name="diis">    1.86    0.49</time>
   <time name="orth">    0.04    0.02</time>
   <time name="total">    3.29    0.72</time>
   <energy>
    <i name="e_fr_energy">    -33.71607614 </i>
    <i name="e_wo_entrp">    -33.71607614 </i>
    <i name="e_0_energy">    -33.71607614 </i>
   </energy>
  </scstep>
  <scstep>
   <time name="diag">    0.29    0.04</time>
   <time name="diis">    1.78    0.44</time>
   <time name="orth">    0.04    0.02</time>
   <time name="total">    2.83    0.61</time>
   <energy>
    <i name="alphaZ">    261.47351669 </i>
    <i name="ewald">  -3894.05671323 </i>
    <i name="hartreedc">  -1641.81935110 </i>
    <i name="XCdc">    294.56251913 </i>
    <i name="pawpsdc">   3947.00355002 </i>
    <i name="pawaedc">  -3953.09034722 </i>
    <i name="eentropy">     -0.00000000 </i>
    <i name="bandstr">   -784.60518370 </i>
    <i name="atom">   5736.81593331 </i>
    <i name="e_fr_energy">    -33.71607609 </i>
    <i name="e_wo_entrp">    -33.71607609 </i>
    <i name="e_0_energy">    -33.71607609 </i>
   </energy>
  </scstep>
  <structure>
   <crystal>
    <varray name="basis" >
     <v>       5.42360746      -0.00000000       0.00000000 </v>
     <v>       0.00000000       5.42360746       0.00000000 </v>
     <v>       0.00000000       0.00000000       5.42360746 </v>
    </varray>
    <i name="volume">    159.53822230 </i>
    <varray name="rec_basis" >
     <v>       0.18437913      -0.00000000      -0.00000000 </v>
     <v>       0.00000000       0.18437913      -0.00000000 </v>
     <v>      -0.00000000      -0.00000000       0.18437913 </v>
    </varray>
   </crystal>
   <varray name="positions" >
    <v>      -0.00000000       0.00000000       0.00000000 </v>
    <v>      -0.00000000       0.50000000       0.50000000 </v>
    <v>       0.50000000      -0.00000000       0.50000000 </v>
    <v>       0.50000000       0.50000000      -0.00000000 </v>
    <v>      -0.00000000       0.00000000       0.50000000 </v>
    <v>       0.50000000      -0.00000000      -0.00000000 </v>
    <v>       0.00000000       0.50000000       0.00000000 </v>
    <v>       0.50000000       0.50000000       0.50000000 </v>
   </varray>
  </structure>
  <varray name="forces" >
   <v>       0.00000000      -0.00000000      -0.00000000 </v>
   <v>       0.00000000      -0.00000000       0.00000000 </v>
   <v>      -0.00000000       0.00000000       0.00000000 </v>
   <v>       0.00000000      -0.00000000      -0.00000000 </v>
   <v>       0.00000000       0.00000000       0.00000000 </v>
   <v>      -0.00000000       0.00000000       0.00000000 </v>
   <v>      -0.00000000       0.00000000      -0.00000000 </v>
   <v>       0.00000000       0.00000000       0.00000000 </v>
  </varray>
  <varray name="stress" >
   <v>      -1.03384358       0.00000000      -0.00000000 </v>
   <v>      -0.00000000      -1.03384358      -0.00000000 </v>
   <v>       0.00000000       0.00000000      -1.03384358 </v>
  </varray>
  <energy>
   <i name="e_fr_energy">    -33.71607609 </i>
   <i name="e_wo_entrp">    -33.71607609 </i>
   <i name="e_0_energy">    -33.71607609 </i>
  </energy>
  <time name="totalsc">   63.58   15.11</time>
 </calculation>
 <calculation>
  <scstep>
   <time name="dav">    4.95    0.71</time>
   <time name="total">    6.08    0.87</time>
   <energy>
    <i name="alphaZ">    262.31831571 </i>
    <i name="ewald">  -3898.24599499 </i>
    <i name="hartreedc">  -1643.58360098 </i>
    <i name="XCdc">    294.86402472 </i>
    <i name="pawpsdc">   3947.00240212 </i>
    <i name="pawaedc">  -3953.09189866 </i>
    <i name="eentropy">     -0.00000000 </i>
    <i name="bandstr">   -779.80166124 </i>
    <i name="atom">   5736.81593331 </i>
    <i name="e_fr_energy">    -33.72248001 </i>
    <i name="e_wo_entrp">    -33.72248001 </i>
    <i name="e_0_energy">    -33.72248001 </i>
   </energy>
  </scstep>
  <scstep>
   <time name="diag">    0.28    0.04</time>
   <time name="diis">    1.89    0.50</time>
   <time name="orth">    0.04    0.02</time>
   <time name="total">    3.24    0.72</time>
   <energy>
    <i name="e_fr_energy">    -33.71666893 </i>
    <i name="e_wo_entrp">    -33.71666893 </i>
    <i name="e_0_energy">    -33.71666893 </i>
   </energy>
  </scstep>
  <scstep>
   <time name="diag">    0.29    0.04</time>
   <time name="diis">    1.93    0.52</time>
   <time name="orth">    0.04    0.02</time>
   <time name="total">    3.28    0.74</time>
   <energy>
    <i name="e_fr_energy">    -33.71630978 </i>
    <i name="e_wo_entrp">    -33.71630978 </i>
    <i name="e_0_energy">    -33.71630978 </i>
   </energy>
  </scstep>
  <scstep>
   <time name="diag">    0.28    0.04</time>
   <time name="diis">    2.08    0.59</time>
   <time name="orth">    0.04    0.02</time>
   <time name="total">    3.43    0.81</time>
   <energy>
    <i name="e_fr_energy">    -33.71622050 </i>
    <i name="e_wo_entrp">    -33.71622050 </i>
    <i name="e_0_energy">    -33.71622050 </i>
   </energy>
  </scstep>
  <scstep>
   <time name="diag">    0.28    0.04</time>
   <time name="diis">    2.30    0.70</time>
   <time name="orth">    0.04    0.02</time>
   <time name="total">    3.64    0.92</time>
   <energy>
    <i name="e_fr_energy">    -33.71624092 </i>
    <i name="e_wo_entrp">    -33.71624092 </i>
    <i name="e_0_energy">    -33.71624092 </i>
   </energy>
  </scstep>
  <scstep>
   <time name="diag">    0.28    0.04</time>
   <time name="diis">    2.21    0.65</time>
   <time name="orth">    0.04    0.02</time>
   <time name="total">    3.56    0.88</time>
   <energy>
    <i name="e_fr_energy">    -33.71624906 </i>
    <i name="e_wo_entrp">    -33.71624906 </i>
    <i name="e_0_energy">    -33.71624906 </i>
   </energy>
  </scstep>
  <scstep>
   <time name="diag">    0.28    0.04</time>
   <time name="diis">    2.02    0.56</time>
   <time name="orth">    0.04    0.02</time>
   <time name="total">    3.43    0.79</time>
   <energy>
    <i name="e_fr_energy">    -33.71625498 </i>
    <i name="e_wo_entrp">    -33.71625498 </i>
    <i name="e_0_energy">    -33.71625498 </i>
   </energy>
  </scstep>
  <scstep>
   <time name="diag">    0.28    0.04</time>
   <time name="diis">    1.91    0.51</time>
   <time name="orth">    0.04    0.02</time>
   <time name="total">    3.26    0.73</time>
   <energy>
    <i name="e_fr_energy">    -33.71625613 </i>
    <i name="e_wo_entrp">    -33.71625613 </i>
    <i name="e_0_energy">    -33.71625613 </i>
   </energy>
  </scstep>
  <scstep>
   <time name="diag">    0.28    0.04</time>
   <time name="diis">    1.68    0.39</time>
   <time name="orth">    0.04    0.02</time>
   <time name="total">    2.72    0.55</time>
   <energy>
    <i name="alphaZ">    262.31831571 </i>
    <i name="ewald">  -3898.24599499 </i>
    <i name="hartreedc">  -1639.28726599 </i>
    <i name="XCdc">    294.58909374 </i>
    <i name="pawpsdc">   3947.50128964 </i>
    <i name="pawaedc">  -3953.59192372 </i>
    <i name="eentropy">     -0.00000000 </i>
    <i name="bandstr">   -783.81570428 </i>
    <i name="atom">   5736.81593331 </i>
    <i name="e_fr_energy">    -33.71625658 </i>
    <i name="e_wo_entrp">    -33.71625658 </i>
    <i name="e_0_energy">    -33.71625658 </i>
   </energy>
  </scstep>
  <structure>
   <crystal>
    <varray name="basis" >
     <v>       5.41777894      -0.00000000       0.00000000 </v>
     <v>       0.00000000       5.41777894       0.00000000 </v>
     <v>       0.00000000       0.00000000       5.41777894 </v>
    </varray>
    <i name="volume">    159.02442771 </i>
    <varray name="rec_basis" >
     <v>       0.18457748      -0.00000000      -0.00000000 </v>
     <v>       0.00000000       0.18457748      -0.00000000 </v>
     <v>      -0.00000000      -0.00000000       0.18457748 </v>
    </varray>
   </crystal>
   <varray name="positions" >
    <v>      -0.00000000       0.00000000       0.00000000 </v>
    <v>      -0.00000000       0.50000000       0.50000000 </v>
    <v>       0.50000000      -0.00000000       0.50000000 </v>
    <v>       0.50000000       0.50000000      -0.00000000 </v>
    <v>      -0.00000000       0.00000000       0.50000000 </v>
    <v>       0.50000000      -0.00000000      -0.00000000 </v>
    <v>       0.00000000       0.50000000       0.00000000 </v>
    <v>       0.50000000       0.50000000       0.50000000 </v>
   </varray>
  </structure>
  <varray name="forces" >
   <v>      -0.00000000      -0.00000000       0.00000000 </v>
   <v>      -0.00000000      -0.00000000      -0.00000000 </v>
   <v>      -0.00000000       0.00000000      -0.00000000 </v>
   <v>      -0.00000000       0.00000000      -0.00000000 </v>
   <v>       0.00000000       0.00000000      -0.00000000 </v>
   <v>       0.00000000       0.00000000       0.00000000 </v>
   <v>       0.00000000      -0.00000000       0.00000000 </v>
   <v>       0.00000000      -0.00000000       0.00000000 </v>
  </varray>
  <varray name="stress" >
   <v>      -0.16062768      -0.00000000       0.00000000 </v>
   <v>      -0.00000000      -0.16062768      -0.00000000 </v>
   <v>      -0.00000000      -0.00000000      -0.16062768 </v>
  </varray>
  <energy>
   <i name="e_fr_energy">    -33.71625658 </i>
   <i name="e_wo_entrp">    -33.71625658 </i>
   <i name="e_0_energy">    -33.71625658 </i>
  </energy>
  <time name="totalsc">   39.17    8.25</time>
  <eigenvalues>
   <array>
    <dimension dim="1">band</dimension>
    <dimension dim="2">kpoint</dimension>
    <dimension dim="3">spin</dimension>
    <field>eigene</field>
    <field>occ</field>
    <set>
     <set comment="spin 1">
      <set comment="kpoint 1">
       <r>  -29.1245    1.0000 </r>
       <r>  -29.0286    1.0000 </r>
       <r>  -29.0286    1.0000 </r>
       <r>  -29.0286    1.0000 </r>
       <r>  -21.5286    1.0000 </r>
       <r>  -21.5286    1.0000 </r>
       <r>  -21.5286    1.0000 </r>
       <r>  -21.5205    1.0000 </r>
       <r>  -12.9293    1.0000 </r>
       <r>  -12.9293    1.0000 </r>
       <r>  -12.9293    1.0000 </r>
       <r>  -12.6264    1.0000 </r>
       <r>  -12.6264    1.0000 </r>
       <r>  -12.6264    1.0000 </r>
       <r>  -12.6264    1.0000 </r>
       <r>  -12.6264    1.0000 </r>
       <r>  -12.6264    1.0000 </r>
       <r>  -12.4417    1.0000 </r>
       <r>  -12.4417    1.0000 </r>
       <r>  -12.4417    1.0000 </r>
       <r>   -3.1406    1.0000 </r>
       <r>   -3.1406    1.0000 </r>
       <r>   -3.1406    1.0000 </r>
       <r>   -2.9750    1.0000 </r>
       <r>   -2.9750    1.0000 </r>
       <r>   -2.9750    1.0000 </r>
       <r>   -2.9750    1.0000 </r>
       <r>   -2.9750    1.0000 </r>
       <r>   -2.9750    1.0000 </r>
       <r>   -2.9103    1.0000 </r>
       <r>   -2.9103    1.0000 </r>
       <r>   -2.9103    1.0000 </r>
       <r>    3.0537    0.0000 </r>
       <r>    5.2491    0.0000 </r>
       <r>    5.2491    0.0000 </r>
       <r>    5.2491    0.0000 </r>
       <r>    7.1671    0.0000 </r>
       <r>    7.1678    0.0000 </r>
      </set>
      <set comment="kpoint 2">
       <r>  -29.1214    1.0000 </r>
       <r>  -29.0312    1.0000 </r>
       <r>  -29.0283    1.0000 </r>
       <r>  -29.0283    1.0000 </r>
       <r>  -21.5310    1.0000 </r>
       <r>  -21.5310    1.0000 </r>
       <r>  -21.5308    1.0000 </r>
       <r>  -21.5226    1.0000 </r>
       <r>  -12.9204    1.0000 </r>
       <r>  -12.9204    1.0000 </r>
       <r>  -12.9034    1.0000 </r>
       <r>  -12.6357    1.0000 </r>
       <r>  -12.6357    1.0000 </r>
       <r>  -12.6208    1.0000 </r>
       <r>  -12.6208    1.0000 </r>
       <r>  -12.6145    1.0000 </r>
       <r>  -12.6145    1.0000 </r>
       <r>  -12.4472    1.0000 </r>
       <r>  -12.4472    1.0000 </r>
       <r>  -12.4441    1.0000 </r>
       <r>   -3.1706    1.0000 </r>
       <r>   -3.1385    1.0000 </r>
       <r>   -3.1385    1.0000 </r>
       <r>   -3.0120    1.0000 </r>
       <r>   -3.0120    1.0000 </r>
       <r>   -2.9835    1.0000 </r>
       <r>   -2.9835    1.0000 </r>
       <r>   -2.9750    1.0000 </r>
       <r>   -2.9750    1.0000 </r>
       <r>   -2.9639    1.0000 </r>
       <r>   -2.9144    1.0000 </r>
       <r>   -2.9144    1.0000 </r>
       <r>    3.1665    0.0000 </r>
       <r>    5.2980    0.0000 </r>
       <r>    5.3312    0.0000 </r>
       <r>    5.3312    0.0000 </r>
       <r>    6.9454    0.0000 </r>
       <r>    7.2579    0.0000 </r>
      </set>
      <set comment="kpoint 3">
       <r>  -29.1126    1.0000 </r>
       <r>  -29.0390    1.0000 </r>
       <r>  -29.0277    1.0000 </r>
       <r>  -29.0277    1.0000 </r>
       <r>  -21.5372    1.0000 </r>
       <r>  -21.5372    1.0000 </r>
       <r>  -21.5365    1.0000 </r>
       <r>  -21.5293    1.0000 </r>
       <r>  -12.8945    1.0000 </r>
       <r>  -12.8945    1.0000 </r>
       <r>  -12.8322    1.0000 </r>
       <r>  -12.6624    1.0000 </r>
       <r>  -12.6624    1.0000 </r>
       <r>  -12.6047    1.0000 </r>
       <r>  -12.6047    1.0000 </r>
       <r>  -12.5842    1.0000 </r>
       <r>  -12.5842    1.0000 </r>
       <r>  -12.4632    1.0000 </r>
       <r>  -12.4632    1.0000 </r>
       <r>  -12.4554    1.0000 </r>
       <r>   -3.2456    1.0000 </r>
       <r>   -3.1316    1.0000 </r>
       <r>   -3.1316    1.0000 </r>
       <r>   -3.1046    1.0000 </r>
       <r>   -3.1046    1.0000 </r>
       <r>   -3.0958    1.0000 </r>
       <r>   -3.0066    1.0000 </r>
       <r>   -3.0066    1.0000 </r>
       <r>   -2.9743    1.0000 </r>
       <r>   -2.9743    1.0000 </r>
       <r>   -2.9254    1.0000 </r>
       <r>   -2.9254    1.0000 </r>
       <r>    3.4809    0.0000 </r>
       <r>    5.4436    0.0000 </r>
       <r>    5.5698    0.0000 </r>
       <r>    5.5698    0.0000 </r>
       <r>    6.4184    0.0000 </r>
       <r>    7.2179    0.0000 </r>
      </set>
      <set comment="kpoint 4">
       <r>  -29.0992    1.0000 </r>
       <r>  -29.0512    1.0000 </r>
       <r>  -29.0270    1.0000 </r>
       <r>  -29.0270    1.0000 </r>
       <r>  -21.5440    1.0000 </r>
       <r>  -21.5440    1.0000 </r>
       <r>  -21.5424    1.0000 </r>
       <r>  -21.5376    1.0000 </r>
       <r>  -12.8547    1.0000 </r>
       <r>  -12.8547    1.0000 </r>
       <r>  -12.7334    1.0000 </r>
       <r>  -12.7033    1.0000 </r>
       <r>  -12.7033    1.0000 </r>
       <r>  -12.5801    1.0000 </r>
       <r>  -12.5801    1.0000 </r>
       <r>  -12.5493    1.0000 </r>
       <r>  -12.5493    1.0000 </r>
       <r>  -12.4877    1.0000 </r>
       <r>  -12.4877    1.0000 </r>
       <r>  -12.4857    1.0000 </r>
       <r>   -3.3271    1.0000 </r>
       <r>   -3.2421    1.0000 </r>
       <r>   -3.2082    1.0000 </r>
       <r>   -3.2082    1.0000 </r>
       <r>   -3.1185    1.0000 </r>
       <r>   -3.1185    1.0000 </r>
       <r>   -3.0379    1.0000 </r>
       <r>   -3.0379    1.0000 </r>
       <r>   -2.9715    1.0000 </r>
       <r>   -2.9715    1.0000 </r>
       <r>   -2.9400    1.0000 </r>
       <r>   -2.9400    1.0000 </r>
       <r>    3.9444    0.0000 </r>
       <r>    5.6808    0.0000 </r>
       <r>    5.7830    0.0000 </r>
       <r>    5.9421    0.0000 </r>
       <r>    5.9421    0.0000 </r>
       <r>    6.8075    0.0000 </r>
      </set>
      <set comment="kpoint 5">
       <r>  -29.0831    1.0000 </r>
       <r>  -29.0665    1.0000 </r>
       <r>  -29.0265    1.0000 </r>
       <r>  -29.0265    1.0000 </r>
       <r>  -21.5486    1.0000 </r>
       <r>  -21.5486    1.0000 </r>
       <r>  -21.5453    1.0000 </r>
       <r>  -21.5438    1.0000 </r>
       <r>  -12.8056    1.0000 </r>
       <r>  -12.8056    1.0000 </r>
       <r>  -12.7530    1.0000 </r>
       <r>  -12.7530    1.0000 </r>
       <r>  -12.6302    1.0000 </r>
       <r>  -12.5499    1.0000 </r>
       <r>  -12.5499    1.0000 </r>
       <r>  -12.5438    1.0000 </r>
       <r>  -12.5264    1.0000 </r>
       <r>  -12.5264    1.0000 </r>
       <r>  -12.5178    1.0000 </r>
       <r>  -12.5178    1.0000 </r>
       <r>   -3.3705    1.0000 </r>
       <r>   -3.3437    1.0000 </r>
       <r>   -3.2749    1.0000 </r>
       <r>   -3.2749    1.0000 </r>
       <r>   -3.0979    1.0000 </r>
       <r>   -3.0979    1.0000 </r>
       <r>   -3.0702    1.0000 </r>
       <r>   -3.0702    1.0000 </r>
       <r>   -2.9650    1.0000 </r>
       <r>   -2.9650    1.0000 </r>
       <r>   -2.9541    1.0000 </r>
       <r>   -2.9541    1.0000 </r>
       <r>    4.5067    0.0000 </r>
       <r>    5.1303    0.0000 </r>
       <r>    6.0005    0.0000 </r>
       <r>    6.3858    0.0000 </r>
       <r>    6.4154    0.0000 </r>
       <r>    6.4155    0.0000 </r>
      </set>
      <set comment="kpoint 6">
       <r>  -29.1184    1.0000 </r>
       <r>  -29.0309    1.0000 </r>
       <r>  -29.0309    1.0000 </r>
       <r>  -29.0282    1.0000 </r>
       <r>  -21.5333    1.0000 </r>
       <r>  -21.5333    1.0000 </r>
       <r>  -21.5333    1.0000 </r>
       <r>  -21.5254    1.0000 </r>
       <r>  -12.9115    1.0000 </r>
       <r>  -12.8951    1.0000 </r>
       <r>  -12.8951    1.0000 </r>
       <r>  -12.6322    1.0000 </r>
       <r>  -12.6300    1.0000 </r>
       <r>  -12.6300    1.0000 </r>
       <r>  -12.6145    1.0000 </r>
       <r>  -12.6091    1.0000 </r>
       <r>  -12.6091    1.0000 </r>
       <r>  -12.4577    1.0000 </r>
       <r>  -12.4529    1.0000 </r>
       <r>  -12.4405    1.0000 </r>
       <r>   -3.1702    1.0000 </r>
       <r>   -3.1702    1.0000 </r>
       <r>   -3.1364    1.0000 </r>
       <r>   -3.0370    1.0000 </r>
       <r>   -3.0109    1.0000 </r>
       <r>   -3.0109    1.0000 </r>
       <r>   -3.0035    1.0000 </r>
       <r>   -2.9903    1.0000 </r>
       <r>   -2.9834    1.0000 </r>
       <r>   -2.9834    1.0000 </r>
       <r>   -2.9444    1.0000 </r>
       <r>   -2.9187    1.0000 </r>
       <r>    3.2773    0.0000 </r>
       <r>    5.3791    0.0000 </r>
       <r>    5.3791    0.0000 </r>
       <r>    5.4094    0.0000 </r>
       <r>    7.0159    0.0000 </r>
       <r>    7.0189    0.0000 </r>
      </set>
      <set comment="kpoint 7">
       <r>  -29.1098    1.0000 </r>
       <r>  -29.0384    1.0000 </r>
       <r>  -29.0300    1.0000 </r>
       <r>  -29.0278    1.0000 </r>
       <r>  -21.5395    1.0000 </r>
       <r>  -21.5394    1.0000 </r>
       <r>  -21.5390    1.0000 </r>
       <r>  -21.5321    1.0000 </r>
       <r>  -12.8859    1.0000 </r>
       <r>  -12.8709    1.0000 </r>
       <r>  -12.8257    1.0000 </r>
       <r>  -12.6564    1.0000 </r>
       <r>  -12.6532    1.0000 </r>
       <r>  -12.6136    1.0000 </r>
       <r>  -12.5934    1.0000 </r>
       <r>  -12.5872    1.0000 </r>
       <r>  -12.5793    1.0000 </r>
       <r>  -12.4777    1.0000 </r>
       <r>  -12.4692    1.0000 </r>
       <r>  -12.4452    1.0000 </r>
       <r>   -3.2479    1.0000 </r>
       <r>   -3.1747    1.0000 </r>
       <r>   -3.1296    1.0000 </r>
       <r>   -3.1240    1.0000 </r>
       <r>   -3.1105    1.0000 </r>
       <r>   -3.0939    1.0000 </r>
       <r>   -3.0307    1.0000 </r>
       <r>   -3.0094    1.0000 </r>
       <r>   -3.0062    1.0000 </r>
       <r>   -2.9824    1.0000 </r>
       <r>   -2.9642    1.0000 </r>
       <r>   -2.9302    1.0000 </r>
       <r>    3.5868    0.0000 </r>
       <r>    5.5212    0.0000 </r>
       <r>    5.6141    0.0000 </r>
       <r>    5.6350    0.0000 </r>
       <r>    6.4822    0.0000 </r>
       <r>    7.1907    0.0000 </r>
      </set>
      <set comment="kpoint 8">
       <r>  -29.0968    1.0000 </r>
       <r>  -29.0502    1.0000 </r>
       <r>  -29.0289    1.0000 </r>
       <r>  -29.0274    1.0000 </r>
       <r>  -21.5464    1.0000 </r>
       <r>  -21.5464    1.0000 </r>
       <r>  -21.5450    1.0000 </r>
       <r>  -21.5403    1.0000 </r>
       <r>  -12.8466    1.0000 </r>
       <r>  -12.8336    1.0000 </r>
       <r>  -12.7304    1.0000 </r>
       <r>  -12.6968    1.0000 </r>
       <r>  -12.6911    1.0000 </r>
       <r>  -12.5885    1.0000 </r>
       <r>  -12.5688    1.0000 </r>
       <r>  -12.5512    1.0000 </r>
       <r>  -12.5457    1.0000 </r>
       <r>  -12.5084    1.0000 </r>
       <r>  -12.4942    1.0000 </r>
       <r>  -12.4652    1.0000 </r>
       <r>   -3.3317    1.0000 </r>
       <r>   -3.2531    1.0000 </r>
       <r>   -3.2306    1.0000 </r>
       <r>   -3.2258    1.0000 </r>
       <r>   -3.1308    1.0000 </r>
       <r>   -3.1167    1.0000 </r>
       <r>   -3.0618    1.0000 </r>
       <r>   -3.0371    1.0000 </r>
       <r>   -3.0069    1.0000 </r>
       <r>   -2.9792    1.0000 </r>
       <r>   -2.9789    1.0000 </r>
       <r>   -2.9454    1.0000 </r>
       <r>    4.0430    0.0000 </r>
       <r>    5.7525    0.0000 </r>
       <r>    5.8518    0.0000 </r>
       <r>    5.9799    0.0000 </r>
       <r>    5.9836    0.0000 </r>
       <r>    6.8404    0.0000 </r>
      </set>
      <set comment="kpoint 9">
       <r>  -29.0812    1.0000 </r>
       <r>  -29.0650    1.0000 </r>
       <r>  -29.0279    1.0000 </r>
       <r>  -29.0274    1.0000 </r>
       <r>  -21.5511    1.0000 </r>
       <r>  -21.5509    1.0000 </r>
       <r>  -21.5480    1.0000 </r>
       <r>  -21.5463    1.0000 </r>
       <r>  -12.7980    1.0000 </r>
       <r>  -12.7874    1.0000 </r>
       <r>  -12.7460    1.0000 </r>
       <r>  -12.7379    1.0000 </r>
       <r>  -12.6332    1.0000 </r>
       <r>  -12.5577    1.0000 </r>
       <r>  -12.5568    1.0000 </r>
       <r>  -12.5372    1.0000 </r>
       <r>  -12.5263    1.0000 </r>
       <r>  -12.5250    1.0000 </r>
       <r>  -12.5244    1.0000 </r>
       <r>  -12.5002    1.0000 </r>
       <r>   -3.3770    1.0000 </r>
       <r>   -3.3522    1.0000 </r>
       <r>   -3.2920    1.0000 </r>
       <r>   -3.2917    1.0000 </r>
       <r>   -3.1179    1.0000 </r>
       <r>   -3.0964    1.0000 </r>
       <r>   -3.0928    1.0000 </r>
       <r>   -3.0690    1.0000 </r>
       <r>   -3.0015    1.0000 </r>
       <r>   -2.9920    1.0000 </r>
       <r>   -2.9720    1.0000 </r>
       <r>   -2.9603    1.0000 </r>
       <r>    4.5960    0.0000 </r>
       <r>    5.2091    0.0000 </r>
       <r>    6.0632    0.0000 </r>
       <r>    6.4155    0.0000 </r>
       <r>    6.4359    0.0000 </r>
       <r>    6.4417    0.0000 </r>
      </set>
      <set comment="kpoint 10">
       <r>  -29.1019    1.0000 </r>
       <r>  -29.0368    1.0000 </r>
       <r>  -29.0368    1.0000 </r>
       <r>  -29.0281    1.0000 </r>
       <r>  -21.5455    1.0000 </r>
       <r>  -21.5450    1.0000 </r>
       <r>  -21.5450    1.0000 </r>
       <r>  -21.5390    1.0000 </r>
       <r>  -12.8612    1.0000 </r>
       <r>  -12.8067    1.0000 </r>
       <r>  -12.8067    1.0000 </r>
       <r>  -12.6441    1.0000 </r>
       <r>  -12.6391    1.0000 </r>
       <r>  -12.6391    1.0000 </r>
       <r>  -12.5822    1.0000 </r>
       <r>  -12.5651    1.0000 </r>
       <r>  -12.5651    1.0000 </r>
       <r>  -12.5002    1.0000 </r>
       <r>  -12.4865    1.0000 </r>
       <r>  -12.4397    1.0000 </r>
       <r>   -3.2600    1.0000 </r>
       <r>   -3.2600    1.0000 </r>
       <r>   -3.1902    1.0000 </r>
       <r>   -3.1772    1.0000 </r>
       <r>   -3.1231    1.0000 </r>
       <r>   -3.0895    1.0000 </r>
       <r>   -3.0895    1.0000 </r>
       <r>   -3.0749    1.0000 </r>
       <r>   -3.0301    1.0000 </r>
       <r>   -3.0044    1.0000 </r>
       <r>   -3.0044    1.0000 </r>
       <r>   -2.9430    1.0000 </r>
       <r>    3.8822    0.0000 </r>
       <r>    5.7453    0.0000 </r>
       <r>    5.7453    0.0000 </r>
       <r>    5.8205    0.0000 </r>
       <r>    6.6307    0.0000 </r>
       <r>    6.6308    0.0000 </r>
      </set>
      <set comment="kpoint 11">
       <r>  -29.0899    1.0000 </r>
       <r>  -29.0475    1.0000 </r>
       <r>  -29.0346    1.0000 </r>
       <r>  -29.0289    1.0000 </r>
       <r>  -21.5524    1.0000 </r>
       <r>  -21.5522    1.0000 </r>
       <r>  -21.5512    1.0000 </r>
       <r>  -21.5469    1.0000 </r>
       <r>  -12.8230    1.0000 </r>
       <r>  -12.7769    1.0000 </r>
       <r>  -12.7205    1.0000 </r>
       <r>  -12.6781    1.0000 </r>
       <r>  -12.6644    1.0000 </r>
       <r>  -12.6126    1.0000 </r>
       <r>  -12.5520    1.0000 </r>
       <r>  -12.5419    1.0000 </r>
       <r>  -12.5344    1.0000 </r>
       <r>  -12.5302    1.0000 </r>
       <r>  -12.5130    1.0000 </r>
       <r>  -12.4486    1.0000 </r>
       <r>   -3.3488    1.0000 </r>
       <r>   -3.2995    1.0000 </r>
       <r>   -3.2929    1.0000 </r>
       <r>   -3.2813    1.0000 </r>
       <r>   -3.1489    1.0000 </r>
       <r>   -3.1116    1.0000 </r>
       <r>   -3.1108    1.0000 </r>
       <r>   -3.0887    1.0000 </r>
       <r>   -3.0628    1.0000 </r>
       <r>   -3.0342    1.0000 </r>
       <r>   -2.9998    1.0000 </r>
       <r>   -2.9601    1.0000 </r>
       <r>    4.3170    0.0000 </r>
       <r>    5.9571    0.0000 </r>
       <r>    6.0272    0.0000 </r>
       <r>    6.0901    0.0000 </r>
       <r>    6.0947    0.0000 </r>
       <r>    6.7376    0.0000 </r>
      </set>
      <set comment="kpoint 12">
       <r>  -29.0757    1.0000 </r>
       <r>  -29.0609    1.0000 </r>
       <r>  -29.0322    1.0000 </r>
       <r>  -29.0303    1.0000 </r>
       <r>  -21.5569    1.0000 </r>
       <r>  -21.5568    1.0000 </r>
       <r>  -21.5545    1.0000 </r>
       <r>  -21.5530    1.0000 </r>
       <r>  -12.7760    1.0000 </r>
       <r>  -12.7397    1.0000 </r>
       <r>  -12.7257    1.0000 </r>
       <r>  -12.7000    1.0000 </r>
       <r>  -12.6364    1.0000 </r>
       <r>  -12.5801    1.0000 </r>
       <r>  -12.5728    1.0000 </r>
       <r>  -12.5455    1.0000 </r>
       <r>  -12.5242    1.0000 </r>
       <r>  -12.5175    1.0000 </r>
       <r>  -12.5104    1.0000 </r>
       <r>  -12.4752    1.0000 </r>
       <r>   -3.3991    1.0000 </r>
       <r>   -3.3808    1.0000 </r>
       <r>   -3.3461    1.0000 </r>
       <r>   -3.3436    1.0000 </r>
       <r>   -3.1573    1.0000 </r>
       <r>   -3.1404    1.0000 </r>
       <r>   -3.0913    1.0000 </r>
       <r>   -3.0861    1.0000 </r>
       <r>   -3.0784    1.0000 </r>
       <r>   -3.0649    1.0000 </r>
       <r>   -2.9908    1.0000 </r>
       <r>   -2.9771    1.0000 </r>
       <r>    4.8419    0.0000 </r>
       <r>    5.4209    0.0000 </r>
       <r>    6.2372    0.0000 </r>
       <r>    6.4038    0.0000 </r>
       <r>    6.5164    0.0000 </r>
       <r>    6.5816    0.0000 </r>
      </set>
      <set comment="kpoint 13">
       <r>  -29.0797    1.0000 </r>
       <r>  -29.0435    1.0000 </r>
       <r>  -29.0435    1.0000 </r>
       <r>  -29.0314    1.0000 </r>
       <r>  -21.5590    1.0000 </r>
       <r>  -21.5585    1.0000 </r>
       <r>  -21.5585    1.0000 </r>
       <r>  -21.5552    1.0000 </r>
       <r>  -12.7868    1.0000 </r>
       <r>  -12.7033    1.0000 </r>
       <r>  -12.7033    1.0000 </r>
       <r>  -12.6500    1.0000 </r>
       <r>  -12.6495    1.0000 </r>
       <r>  -12.6495    1.0000 </r>
       <r>  -12.5548    1.0000 </r>
       <r>  -12.5417    1.0000 </r>
       <r>  -12.5387    1.0000 </r>
       <r>  -12.5149    1.0000 </r>
       <r>  -12.5149    1.0000 </r>
       <r>  -12.4451    1.0000 </r>
       <r>   -3.3850    1.0000 </r>
       <r>   -3.3850    1.0000 </r>
       <r>   -3.3662    1.0000 </r>
       <r>   -3.3597    1.0000 </r>
       <r>   -3.1601    1.0000 </r>
       <r>   -3.1601    1.0000 </r>
       <r>   -3.1540    1.0000 </r>
       <r>   -3.1272    1.0000 </r>
       <r>   -3.0994    1.0000 </r>
       <r>   -3.0278    1.0000 </r>
       <r>   -3.0278    1.0000 </r>
       <r>   -2.9799    1.0000 </r>
       <r>    4.7167    0.0000 </r>
       <r>    6.2274    0.0000 </r>
       <r>    6.2275    0.0000 </r>
       <r>    6.2368    0.0000 </r>
       <r>    6.2633    0.0000 </r>
       <r>    6.2633    0.0000 </r>
      </set>
      <set comment="kpoint 14">
       <r>  -29.0674    1.0000 </r>
       <r>  -29.0549    1.0000 </r>
       <r>  -29.0391    1.0000 </r>
       <r>  -29.0349    1.0000 </r>
       <r>  -21.5635    1.0000 </r>
       <r>  -21.5631    1.0000 </r>
       <r>  -21.5619    1.0000 </r>
       <r>  -21.5607    1.0000 </r>
       <r>  -12.7422    1.0000 </r>
       <r>  -12.6945    1.0000 </r>
       <r>  -12.6814    1.0000 </r>
       <r>  -12.6601    1.0000 </r>
       <r>  -12.6358    1.0000 </r>
       <r>  -12.6144    1.0000 </r>
       <r>  -12.5874    1.0000 </r>
       <r>  -12.5769    1.0000 </r>
       <r>  -12.5146    1.0000 </r>
       <r>  -12.5035    1.0000 </r>
       <r>  -12.4877    1.0000 </r>
       <r>  -12.4599    1.0000 </r>
       <r>   -3.4389    1.0000 </r>
       <r>   -3.4308    1.0000 </r>
       <r>   -3.4217    1.0000 </r>
       <r>   -3.4168    1.0000 </r>
       <r>   -3.1869    1.0000 </r>
       <r>   -3.1805    1.0000 </r>
       <r>   -3.1635    1.0000 </r>
       <r>   -3.1555    1.0000 </r>
       <r>   -3.0813    1.0000 </r>
       <r>   -3.0566    1.0000 </r>
       <r>   -3.0164    1.0000 </r>
       <r>   -2.9999    1.0000 </r>
       <r>    5.1919    0.0000 </r>
       <r>    5.7044    0.0000 </r>
       <r>    6.3465    0.0000 </r>
       <r>    6.3528    0.0000 </r>
       <r>    6.4797    0.0000 </r>
       <r>    6.6203    0.0000 </r>
      </set>
      <set comment="kpoint 15">
       <r>  -29.0577    1.0000 </r>
       <r>  -29.0479    1.0000 </r>
       <r>  -29.0479    1.0000 </r>
       <r>  -29.0409    1.0000 </r>
       <r>  -21.5673    1.0000 </r>
       <r>  -21.5670    1.0000 </r>
       <r>  -21.5670    1.0000 </r>
       <r>  -21.5660    1.0000 </r>
       <r>  -12.7006    1.0000 </r>
       <r>  -12.6562    1.0000 </r>
       <r>  -12.6562    1.0000 </r>
       <r>  -12.6383    1.0000 </r>
       <r>  -12.6339    1.0000 </r>
       <r>  -12.6339    1.0000 </r>
       <r>  -12.6154    1.0000 </r>
       <r>  -12.6050    1.0000 </r>
       <r>  -12.4957    1.0000 </r>
       <r>  -12.4822    1.0000 </r>
       <r>  -12.4822    1.0000 </r>
       <r>  -12.4631    1.0000 </r>
       <r>   -3.4759    1.0000 </r>
       <r>   -3.4753    1.0000 </r>
       <r>   -3.4753    1.0000 </r>
       <r>   -3.4708    1.0000 </r>
       <r>   -3.2018    1.0000 </r>
       <r>   -3.2000    1.0000 </r>
       <r>   -3.2000    1.0000 </r>
       <r>   -3.1931    1.0000 </r>
       <r>   -3.0651    1.0000 </r>
       <r>   -3.0427    1.0000 </r>
       <r>   -3.0427    1.0000 </r>
       <r>   -3.0231    1.0000 </r>
       <r>    5.5893    0.0000 </r>
       <r>    5.9877    0.0000 </r>
       <r>    5.9877    0.0000 </r>
       <r>    6.2113    0.0000 </r>
       <r>    6.7212    0.0000 </r>
       <r>    6.7281    0.0000 </r>
      </set>
      <set comment="kpoint 16">
       <r>  -29.1155    1.0000 </r>
       <r>  -29.0307    1.0000 </r>
       <r>  -29.0307    1.0000 </r>
       <r>  -29.0307    1.0000 </r>
       <r>  -21.5357    1.0000 </r>
       <r>  -21.5357    1.0000 </r>
       <r>  -21.5357    1.0000 </r>
       <r>  -21.5279    1.0000 </r>
       <r>  -12.8868    1.0000 </r>
       <r>  -12.8868    1.0000 </r>
       <r>  -12.8868    1.0000 </r>
       <r>  -12.6264    1.0000 </r>
       <r>  -12.6264    1.0000 </r>
       <r>  -12.6264    1.0000 </r>
       <r>  -12.6092    1.0000 </r>
       <r>  -12.6092    1.0000 </r>
       <r>  -12.6092    1.0000 </r>
       <r>  -12.4715    1.0000 </r>
       <r>  -12.4457    1.0000 </r>
       <r>  -12.4457    1.0000 </r>
       <r>   -3.1704    1.0000 </r>
       <r>   -3.1704    1.0000 </r>
       <r>   -3.1704    1.0000 </r>
       <r>   -3.0339    1.0000 </r>
       <r>   -3.0339    1.0000 </r>
       <r>   -3.0339    1.0000 </r>
       <r>   -3.0165    1.0000 </r>
       <r>   -3.0037    1.0000 </r>
       <r>   -3.0037    1.0000 </r>
       <r>   -3.0037    1.0000 </r>
       <r>   -2.9483    1.0000 </r>
       <r>   -2.9483    1.0000 </r>
       <r>    3.3865    0.0000 </r>
       <r>    5.4560    0.0000 </r>
       <r>    5.4560    0.0000 </r>
       <r>    5.4560    0.0000 </r>
       <r>    7.0844    0.0000 </r>
       <r>    7.0855    0.0000 </r>
      </set>
      <set comment="kpoint 17">
       <r>  -29.1071    1.0000 </r>
       <r>  -29.0379    1.0000 </r>
       <r>  -29.0300    1.0000 </r>
       <r>  -29.0300    1.0000 </r>
       <r>  -21.5418    1.0000 </r>
       <r>  -21.5418    1.0000 </r>
       <r>  -21.5415    1.0000 </r>
       <r>  -21.5347    1.0000 </r>
       <r>  -12.8631    1.0000 </r>
       <r>  -12.8631    1.0000 </r>
       <r>  -12.8196    1.0000 </r>
       <r>  -12.6470    1.0000 </r>
       <r>  -12.6470    1.0000 </r>
       <r>  -12.6093    1.0000 </r>
       <r>  -12.5940    1.0000 </r>
       <r>  -12.5824    1.0000 </r>
       <r>  -12.5824    1.0000 </r>
       <r>  -12.4944    1.0000 </r>
       <r>  -12.4607    1.0000 </r>
       <r>  -12.4465    1.0000 </r>
       <r>   -3.2511    1.0000 </r>
       <r>   -3.1804    1.0000 </r>
       <r>   -3.1804    1.0000 </r>
       <r>   -3.1269    1.0000 </r>
       <r>   -3.1059    1.0000 </r>
       <r>   -3.1059    1.0000 </r>
       <r>   -3.0306    1.0000 </r>
       <r>   -3.0306    1.0000 </r>
       <r>   -3.0299    1.0000 </r>
       <r>   -3.0036    1.0000 </r>
       <r>   -2.9764    1.0000 </r>
       <r>   -2.9589    1.0000 </r>
       <r>    3.6909    0.0000 </r>
       <r>    5.5939    0.0000 </r>
       <r>    5.6776    0.0000 </r>
       <r>    5.6776    0.0000 </r>
       <r>    6.5440    0.0000 </r>
       <r>    7.2277    0.0000 </r>
      </set>
      <set comment="kpoint 18">
       <r>  -29.0945    1.0000 </r>
       <r>  -29.0493    1.0000 </r>
       <r>  -29.0293    1.0000 </r>
       <r>  -29.0293    1.0000 </r>
       <r>  -21.5488    1.0000 </r>
       <r>  -21.5488    1.0000 </r>
       <r>  -21.5475    1.0000 </r>
       <r>  -21.5428    1.0000 </r>
       <r>  -12.8265    1.0000 </r>
       <r>  -12.8265    1.0000 </r>
       <r>  -12.7282    1.0000 </r>
       <r>  -12.6842    1.0000 </r>
       <r>  -12.6842    1.0000 </r>
       <r>  -12.5820    1.0000 </r>
       <r>  -12.5708    1.0000 </r>
       <r>  -12.5475    1.0000 </r>
       <r>  -12.5475    1.0000 </r>
       <r>  -12.5261    1.0000 </r>
       <r>  -12.4838    1.0000 </r>
       <r>  -12.4639    1.0000 </r>
       <r>   -3.3371    1.0000 </r>
       <r>   -3.2651    1.0000 </r>
       <r>   -3.2469    1.0000 </r>
       <r>   -3.2469    1.0000 </r>
[...]
       <r>  -12.4825    1.0000 </r>
       <r>  -12.4739    1.0000 </r>
       <r>   -3.5488    1.0000 </r>
       <r>   -3.5481    1.0000 </r>
       <r>   -3.5437    1.0000 </r>
       <r>   -3.5437    1.0000 </r>
       <r>   -3.1996    1.0000 </r>
       <r>   -3.1985    1.0000 </r>
       <r>   -3.1985    1.0000 </r>
       <r>   -3.1865    1.0000 </r>
       <r>   -3.1861    1.0000 </r>
       <r>   -3.1861    1.0000 </r>
       <r>   -3.1610    1.0000 </r>
       <r>   -3.1566    1.0000 </r>
       <r>    5.6259    0.0000 </r>
       <r>    5.9189    0.0000 </r>
       <r>    6.1487    0.0000 </r>
       <r>    6.1487    0.0000 </r>
       <r>    6.9756    0.0000 </r>
       <r>    7.0082    0.0000 </r>
      </set>
      <set comment="kpoint 34">
       <r>  -29.0518    1.0000 </r>
       <r>  -29.0462    1.0000 </r>
       <r>  -29.0462    1.0000 </r>
       <r>  -29.0434    1.0000 </r>
       <r>  -21.5831    1.0000 </r>
       <r>  -21.5827    1.0000 </r>
       <r>  -21.5827    1.0000 </r>
       <r>  -21.5823    1.0000 </r>
       <r>  -12.7003    1.0000 </r>
       <r>  -12.6915    1.0000 </r>
       <r>  -12.6915    1.0000 </r>
       <r>  -12.6741    1.0000 </r>
       <r>  -12.5253    1.0000 </r>
       <r>  -12.5128    1.0000 </r>
       <r>  -12.5128    1.0000 </r>
       <r>  -12.4915    1.0000 </r>
       <r>  -12.4863    1.0000 </r>
       <r>  -12.4828    1.0000 </r>
       <r>  -12.4828    1.0000 </r>
       <r>  -12.4700    1.0000 </r>
       <r>   -3.5938    1.0000 </r>
       <r>   -3.5926    1.0000 </r>
       <r>   -3.5926    1.0000 </r>
       <r>   -3.5913    1.0000 </r>
       <r>   -3.2159    1.0000 </r>
       <r>   -3.2159    1.0000 </r>
       <r>   -3.2140    1.0000 </r>
       <r>   -3.2097    1.0000 </r>
       <r>   -3.1961    1.0000 </r>
       <r>   -3.1867    1.0000 </r>
       <r>   -3.1867    1.0000 </r>
       <r>   -3.1796    1.0000 </r>
       <r>    5.8285    0.0000 </r>
       <r>    6.0044    0.0000 </r>
       <r>    6.0044    0.0000 </r>
       <r>    6.0793    0.0000 </r>
       <r>    7.1397    0.0000 </r>
       <r>    7.2086    0.0000 </r>
      </set>
      <set comment="kpoint 35">
       <r>  -29.0486    1.0000 </r>
       <r>  -29.0457    1.0000 </r>
       <r>  -29.0457    1.0000 </r>
       <r>  -29.0457    1.0000 </r>
       <r>  -21.5874    1.0000 </r>
       <r>  -21.5874    1.0000 </r>
       <r>  -21.5874    1.0000 </r>
       <r>  -21.5871    1.0000 </r>
       <r>  -12.6939    1.0000 </r>
       <r>  -12.6939    1.0000 </r>
       <r>  -12.6939    1.0000 </r>
       <r>  -12.6851    1.0000 </r>
       <r>  -12.4872    1.0000 </r>
       <r>  -12.4872    1.0000 </r>
       <r>  -12.4872    1.0000 </r>
       <r>  -12.4807    1.0000 </r>
       <r>  -12.4807    1.0000 </r>
       <r>  -12.4807    1.0000 </r>
       <r>  -12.4750    1.0000 </r>
       <r>  -12.4750    1.0000 </r>
       <r>   -3.6381    1.0000 </r>
       <r>   -3.6373    1.0000 </r>
       <r>   -3.6373    1.0000 </r>
       <r>   -3.6373    1.0000 </r>
       <r>   -3.2206    1.0000 </r>
       <r>   -3.2206    1.0000 </r>
       <r>   -3.2206    1.0000 </r>
       <r>   -3.2168    1.0000 </r>
       <r>   -3.2168    1.0000 </r>
       <r>   -3.2168    1.0000 </r>
       <r>   -3.2153    1.0000 </r>
       <r>   -3.2153    1.0000 </r>
       <r>    5.9218    0.0000 </r>
       <r>    6.0039    0.0000 </r>
       <r>    6.0039    0.0000 </r>
       <r>    6.0039    0.0000 </r>
       <r>    7.3076    0.0000 </r>
       <r>    7.3415    0.0000 </r>
      </set>
     </set>
    </set>
   </array>
  </eigenvalues>
  <separator name="orbital magnetization" >
   <v name="MAGDIPOLOUT">      0.00000000      0.00000000      0.00000000</v>
  </separator>
  <dos>
   <i name="efermi">     -2.45948218 </i>
   <total>
    <array>
     <dimension dim="1">gridpoints</dimension>
     <dimension dim="2">spin</dimension>
     <field>energy</field>
     <field>total</field>
     <field>integrated</field>
     <set>
      <set comment="spin 1">
       <r>   -30.9478     0.0000     0.0000 </r>
       <r>   -30.8141     0.0000     0.0000 </r>
       <r>   -30.6804     0.0000     0.0000 </r>
       <r>   -30.5467     0.0000     0.0000 </r>
       <r>   -30.4130     0.0000     0.0000 </r>
       <r>   -30.2793     0.0000     0.0000 </r>
       <r>   -30.1456     0.0000     0.0000 </r>
       <r>   -30.0119     0.0000     0.0000 </r>
       <r>   -29.8782     0.0000     0.0000 </r>
       <r>   -29.7445     0.0000     0.0000 </r>
       <r>   -29.6108     0.0000     0.0000 </r>
       <r>   -29.4770     0.0000     0.0000 </r>
       <r>   -29.3433     0.0027     0.0004 </r>
       <r>   -29.2096     0.9349     0.1254 </r>
       <r>   -29.0759    20.4977     2.8661 </r>
       <r>   -28.9422    34.0880     7.4240 </r>
       <r>   -28.8085     4.2801     7.9963 </r>
       <r>   -28.6748     0.0280     8.0000 </r>
       <r>   -28.5411     0.0000     8.0000 </r>
       <r>   -28.4074     0.0000     8.0000 </r>
       <r>   -28.2737     0.0000     8.0000 </r>
       <r>   -28.1400     0.0000     8.0000 </r>
       <r>   -28.0063     0.0000     8.0000 </r>
       <r>   -27.8725     0.0000     8.0000 </r>
       <r>   -27.7388     0.0000     8.0000 </r>
       <r>   -27.6051     0.0000     8.0000 </r>
       <r>   -27.4714     0.0000     8.0000 </r>
       <r>   -27.3377     0.0000     8.0000 </r>
       <r>   -27.2040     0.0000     8.0000 </r>
       <r>   -27.0703     0.0000     8.0000 </r>
       <r>   -26.9366     0.0000     8.0000 </r>
       <r>   -26.8029     0.0000     8.0000 </r>
       <r>   -26.6692     0.0000     8.0000 </r>
       <r>   -26.5355     0.0000     8.0000 </r>
       <r>   -26.4017     0.0000     8.0000 </r>
       <r>   -26.2680     0.0000     8.0000 </r>
       <r>   -26.1343     0.0000     8.0000 </r>
       <r>   -26.0006     0.0000     8.0000 </r>
       <r>   -25.8669     0.0000     8.0000 </r>
       <r>   -25.7332     0.0000     8.0000 </r>
       <r>   -25.5995     0.0000     8.0000 </r>
       <r>   -25.4658     0.0000     8.0000 </r>
       <r>   -25.3321     0.0000     8.0000 </r>
       <r>   -25.1984     0.0000     8.0000 </r>
       <r>   -25.0647     0.0000     8.0000 </r>
       <r>   -24.9309     0.0000     8.0000 </r>
       <r>   -24.7972     0.0000     8.0000 </r>
       <r>   -24.6635     0.0000     8.0000 </r>
       <r>   -24.5298     0.0000     8.0000 </r>
       <r>   -24.3961     0.0000     8.0000 </r>
       <r>   -24.2624     0.0000     8.0000 </r>
       <r>   -24.1287     0.0000     8.0000 </r>
       <r>   -23.9950     0.0000     8.0000 </r>
       <r>   -23.8613     0.0000     8.0000 </r>
       <r>   -23.7276     0.0000     8.0000 </r>
       <r>   -23.5939     0.0000     8.0000 </r>
       <r>   -23.4601     0.0000     8.0000 </r>
       <r>   -23.3264     0.0000     8.0000 </r>
       <r>   -23.1927     0.0000     8.0000 </r>
       <r>   -23.0590     0.0000     8.0000 </r>
       <r>   -22.9253     0.0000     8.0000 </r>
       <r>   -22.7916     0.0000     8.0000 </r>
       <r>   -22.6579     0.0000     8.0000 </r>
       <r>   -22.5242     0.0000     8.0000 </r>
       <r>   -22.3905     0.0000     8.0000 </r>
       <r>   -22.2568     0.0000     8.0000 </r>
       <r>   -22.1231     0.0000     8.0000 </r>
       <r>   -21.9893     0.0000     8.0000 </r>
       <r>   -21.8556     0.0010     8.0001 </r>
       <r>   -21.7219     0.6680     8.0895 </r>
       <r>   -21.5882    19.4260    10.6869 </r>
       <r>   -21.4545    35.2196    15.3961 </r>
       <r>   -21.3208     4.4875    15.9961 </r>
       <r>   -21.1871     0.0293    16.0000 </r>
       <r>   -21.0534     0.0000    16.0000 </r>
       <r>   -20.9197     0.0000    16.0000 </r>
       <r>   -20.7860     0.0000    16.0000 </r>
       <r>   -20.6523     0.0000    16.0000 </r>
       <r>   -20.5185     0.0000    16.0000 </r>
       <r>   -20.3848     0.0000    16.0000 </r>
       <r>   -20.2511     0.0000    16.0000 </r>
       <r>   -20.1174     0.0000    16.0000 </r>
       <r>   -19.9837     0.0000    16.0000 </r>
       <r>   -19.8500     0.0000    16.0000 </r>
       <r>   -19.7163     0.0000    16.0000 </r>
       <r>   -19.5826     0.0000    16.0000 </r>
       <r>   -19.4489     0.0000    16.0000 </r>
       <r>   -19.3152     0.0000    16.0000 </r>
       <r>   -19.1815     0.0000    16.0000 </r>
       <r>   -19.0477     0.0000    16.0000 </r>
       <r>   -18.9140     0.0000    16.0000 </r>
       <r>   -18.7803     0.0000    16.0000 </r>
       <r>   -18.6466     0.0000    16.0000 </r>
       <r>   -18.5129     0.0000    16.0000 </r>
       <r>   -18.3792     0.0000    16.0000 </r>
       <r>   -18.2455     0.0000    16.0000 </r>
       <r>   -18.1118     0.0000    16.0000 </r>
       <r>   -17.9781     0.0000    16.0000 </r>
       <r>   -17.8444     0.0000    16.0000 </r>
       <r>   -17.7107     0.0000    16.0000 </r>
       <r>   -17.5770     0.0000    16.0000 </r>
       <r>   -17.4432     0.0000    16.0000 </r>
       <r>   -17.3095     0.0000    16.0000 </r>
       <r>   -17.1758     0.0000    16.0000 </r>
       <r>   -17.0421     0.0000    16.0000 </r>
       <r>   -16.9084     0.0000    16.0000 </r>
       <r>   -16.7747     0.0000    16.0000 </r>
       <r>   -16.6410     0.0000    16.0000 </r>
       <r>   -16.5073     0.0000    16.0000 </r>
       <r>   -16.3736     0.0000    16.0000 </r>
       <r>   -16.2399     0.0000    16.0000 </r>
       <r>   -16.1062     0.0000    16.0000 </r>
       <r>   -15.9724     0.0000    16.0000 </r>
       <r>   -15.8387     0.0000    16.0000 </r>
       <r>   -15.7050     0.0000    16.0000 </r>
       <r>   -15.5713     0.0000    16.0000 </r>
       <r>   -15.4376     0.0000    16.0000 </r>
       <r>   -15.3039     0.0000    16.0000 </r>
       <r>   -15.1702     0.0000    16.0000 </r>
       <r>   -15.0365     0.0000    16.0000 </r>
       <r>   -14.9028     0.0000    16.0000 </r>
       <r>   -14.7691     0.0000    16.0000 </r>
       <r>   -14.6354     0.0000    16.0000 </r>
       <r>   -14.5016     0.0000    16.0000 </r>
       <r>   -14.3679     0.0000    16.0000 </r>
       <r>   -14.2342     0.0000    16.0000 </r>
       <r>   -14.1005     0.0000    16.0000 </r>
       <r>   -13.9668     0.0000    16.0000 </r>
       <r>   -13.8331     0.0000    16.0000 </r>
       <r>   -13.6994     0.0000    16.0000 </r>
       <r>   -13.5657     0.0000    16.0000 </r>
       <r>   -13.4320     0.0000    16.0000 </r>
       <r>   -13.2983     0.0000    16.0000 </r>
       <r>   -13.1646     0.0003    16.0000 </r>
       <r>   -13.0308     0.1063    16.0143 </r>
       <r>   -12.8971     3.1823    16.4398 </r>
       <r>   -12.7634    18.7431    18.9459 </r>
       <r>   -12.6297    48.8567    25.4785 </r>
       <r>   -12.4960    70.0405    34.8435 </r>
       <r>   -12.3623    35.9888    39.6555 </r>
       <r>   -12.2286     2.5633    39.9983 </r>
       <r>   -12.0949     0.0129    40.0000 </r>
       <r>   -11.9612     0.0000    40.0000 </r>
       <r>   -11.8275     0.0000    40.0000 </r>
       <r>   -11.6938     0.0000    40.0000 </r>
       <r>   -11.5600     0.0000    40.0000 </r>
       <r>   -11.4263     0.0000    40.0000 </r>
       <r>   -11.2926     0.0000    40.0000 </r>
       <r>   -11.1589     0.0000    40.0000 </r>
       <r>   -11.0252     0.0000    40.0000 </r>
       <r>   -10.8915     0.0000    40.0000 </r>
       <r>   -10.7578     0.0000    40.0000 </r>
       <r>   -10.6241     0.0000    40.0000 </r>
       <r>   -10.4904     0.0000    40.0000 </r>
       <r>   -10.3567     0.0000    40.0000 </r>
       <r>   -10.2230     0.0000    40.0000 </r>
       <r>   -10.0892     0.0000    40.0000 </r>
       <r>    -9.9555     0.0000    40.0000 </r>
       <r>    -9.8218     0.0000    40.0000 </r>
       <r>    -9.6881     0.0000    40.0000 </r>
       <r>    -9.5544     0.0000    40.0000 </r>
       <r>    -9.4207     0.0000    40.0000 </r>
       <r>    -9.2870     0.0000    40.0000 </r>
       <r>    -9.1533     0.0000    40.0000 </r>
       <r>    -9.0196     0.0000    40.0000 </r>
       <r>    -8.8859     0.0000    40.0000 </r>
       <r>    -8.7522     0.0000    40.0000 </r>
       <r>    -8.6185     0.0000    40.0000 </r>
       <r>    -8.4847     0.0000    40.0000 </r>
       <r>    -8.3510     0.0000    40.0000 </r>
       <r>    -8.2173     0.0000    40.0000 </r>
       <r>    -8.0836     0.0000    40.0000 </r>
       <r>    -7.9499     0.0000    40.0000 </r>
       <r>    -7.8162     0.0000    40.0000 </r>
       <r>    -7.6825     0.0000    40.0000 </r>
       <r>    -7.5488     0.0000    40.0000 </r>
       <r>    -7.4151     0.0000    40.0000 </r>
       <r>    -7.2814     0.0000    40.0000 </r>
       <r>    -7.1477     0.0000    40.0000 </r>
       <r>    -7.0139     0.0000    40.0000 </r>
       <r>    -6.8802     0.0000    40.0000 </r>
       <r>    -6.7465     0.0000    40.0000 </r>
       <r>    -6.6128     0.0000    40.0000 </r>
       <r>    -6.4791     0.0000    40.0000 </r>
       <r>    -6.3454     0.0000    40.0000 </r>
       <r>    -6.2117     0.0000    40.0000 </r>
       <r>    -6.0780     0.0000    40.0000 </r>
       <r>    -5.9443     0.0000    40.0000 </r>
       <r>    -5.8106     0.0000    40.0000 </r>
       <r>    -5.6769     0.0000    40.0000 </r>
       <r>    -5.5431     0.0000    40.0000 </r>
       <r>    -5.4094     0.0000    40.0000 </r>
       <r>    -5.2757     0.0000    40.0000 </r>
       <r>    -5.1420     0.0000    40.0000 </r>
       <r>    -5.0083     0.0000    40.0000 </r>
       <r>    -4.8746     0.0000    40.0000 </r>
       <r>    -4.7409     0.0000    40.0000 </r>
       <r>    -4.6072     0.0000    40.0000 </r>
       <r>    -4.4735     0.0000    40.0000 </r>
       <r>    -4.3398     0.0000    40.0000 </r>
       <r>    -4.2061     0.0000    40.0000 </r>
       <r>    -4.0723     0.0000    40.0000 </r>
       <r>    -3.9386     0.0000    40.0000 </r>
       <r>    -3.8049     0.0089    40.0012 </r>
       <r>    -3.6712     0.6246    40.0847 </r>
       <r>    -3.5375     6.1733    40.9101 </r>
       <r>    -3.4038    18.4424    43.3761 </r>
       <r>    -3.2701    24.9631    46.7138 </r>
       <r>    -3.1364    48.4833    53.1965 </r>
       <r>    -3.0027    57.1849    60.8426 </r>
       <r>    -2.8690    21.9201    63.7735 </r>
       <r>    -2.7353     1.6810    63.9983 </r>
       <r>    -2.6015     0.0127    64.0000 </r>
       <r>    -2.4678     0.0000    64.0000 </r>
       <r>    -2.3341     0.0000    64.0000 </r>
       <r>    -2.2004     0.0000    64.0000 </r>
       <r>    -2.0667     0.0000    64.0000 </r>
       <r>    -1.9330     0.0000    64.0000 </r>
       <r>    -1.7993     0.0000    64.0000 </r>
       <r>    -1.6656     0.0000    64.0000 </r>
       <r>    -1.5319     0.0000    64.0000 </r>
       <r>    -1.3982     0.0000    64.0000 </r>
       <r>    -1.2645     0.0000    64.0000 </r>
       <r>    -1.1307     0.0000    64.0000 </r>
       <r>    -0.9970     0.0000    64.0000 </r>
       <r>    -0.8633     0.0000    64.0000 </r>
       <r>    -0.7296     0.0000    64.0000 </r>
       <r>    -0.5959     0.0000    64.0000 </r>
       <r>    -0.4622     0.0000    64.0000 </r>
       <r>    -0.3285     0.0000    64.0000 </r>
       <r>    -0.1948     0.0000    64.0000 </r>
       <r>    -0.0611     0.0000    64.0000 </r>
       <r>     0.0726     0.0000    64.0000 </r>
       <r>     0.2063     0.0000    64.0000 </r>
       <r>     0.3400     0.0000    64.0000 </r>
       <r>     0.4738     0.0000    64.0000 </r>
       <r>     0.6075     0.0000    64.0000 </r>
       <r>     0.7412     0.0000    64.0000 </r>
       <r>     0.8749     0.0000    64.0000 </r>
       <r>     1.0086     0.0000    64.0000 </r>
       <r>     1.1423     0.0000    64.0000 </r>
       <r>     1.2760     0.0000    64.0000 </r>
       <r>     1.4097     0.0000    64.0000 </r>
       <r>     1.5434     0.0000    64.0000 </r>
       <r>     1.6771     0.0000    64.0000 </r>
       <r>     1.8108     0.0000    64.0000 </r>
       <r>     1.9446     0.0000    64.0000 </r>
       <r>     2.0783     0.0000    64.0000 </r>
       <r>     2.2120     0.0000    64.0000 </r>
       <r>     2.3457     0.0000    64.0000 </r>
       <r>     2.4794     0.0000    64.0000 </r>
       <r>     2.6131     0.0000    64.0000 </r>
       <r>     2.7468     0.0000    64.0000 </r>
       <r>     2.8805     0.0002    64.0000 </r>
       <r>     3.0142     0.0077    64.0011 </r>
       <r>     3.1479     0.0679    64.0101 </r>
       <r>     3.2816     0.2022    64.0372 </r>
       <r>     3.4154     0.2392    64.0692 </r>
       <r>     3.5491     0.2948    64.1086 </r>
       <r>     3.6828     0.5388    64.1806 </r>
       <r>     3.8165     0.3454    64.2268 </r>
       <r>     3.9502     0.4482    64.2867 </r>
       <r>     4.0839     0.8019    64.3939 </r>
       <r>     4.2176     0.5843    64.4721 </r>
       <r>     4.3513     0.6787    64.5628 </r>
       <r>     4.4850     0.8839    64.6810 </r>
       <r>     4.6187     0.7421    64.7802 </r>
       <r>     4.7524     1.1491    64.9339 </r>
       <r>     4.8862     1.1433    65.0867 </r>
       <r>     5.0199     1.0702    65.2298 </r>
       <r>     5.1536     0.9901    65.3622 </r>
       <r>     5.2873     2.0165    65.6318 </r>
       <r>     5.4210     2.5597    65.9741 </r>
       <r>     5.5547     3.0375    66.3802 </r>
       <r>     5.6884     4.0589    66.9230 </r>
       <r>     5.8221     5.0589    67.5994 </r>
       <r>     5.9558     6.0142    68.4035 </r>
       <r>     6.0895     9.1313    69.6245 </r>
       <r>     6.2232     9.6562    70.9156 </r>
       <r>     6.3570     8.0726    71.9950 </r>
       <r>     6.4907     7.8978    73.0510 </r>
       <r>     6.6244     5.1666    73.7418 </r>
       <r>     6.7581     5.5581    74.4850 </r>
       <r>     6.8918     4.6740    75.1099 </r>
       <r>     7.0255     2.9974    75.5107 </r>
       <r>     7.1592     1.7207    75.7408 </r>
       <r>     7.2929     1.4722    75.9376 </r>
       <r>     7.4266     0.4370    75.9960 </r>
       <r>     7.5603     0.0294    76.0000 </r>
       <r>     7.6940     0.0002    76.0000 </r>
       <r>     7.8278     0.0000    76.0000 </r>
       <r>     7.9615     0.0000    76.0000 </r>
       <r>     8.0952     0.0000    76.0000 </r>
       <r>     8.2289     0.0000    76.0000 </r>
       <r>     8.3626     0.0000    76.0000 </r>
       <r>     8.4963     0.0000    76.0000 </r>
       <r>     8.6300     0.0000    76.0000 </r>
       <r>     8.7637     0.0000    76.0000 </r>
       <r>     8.8974     0.0000    76.0000 </r>
       <r>     9.0311     0.0000    76.0000 </r>
       <r>     9.1648     0.0000    76.0000 </r>
      </set>
     </set>
    </array>
   </total>
  </dos>
 </calculation>
 <structure name="finalpos" >
  <crystal>
   <varray name="basis" >
    <v>       5.41777894      -0.00000000       0.00000000 </v>
    <v>       0.00000000       5.41777894       0.00000000 </v>
    <v>       0.00000000       0.00000000       5.41777894 </v>
   </varray>
   <i name="volume">    159.02442771 </i>
   <varray name="rec_basis" >
    <v>       0.18457748      -0.00000000      -0.00000000 </v>
    <v>       0.00000000       0.18457748      -0.00000000 </v>
    <v>      -0.00000000      -0.00000000       0.18457748 </v>
   </varray>
  </crystal>
  <varray name="positions" >
   <v>      -0.00000000       0.00000000       0.00000000 </v>
   <v>      -0.00000000       0.50000000       0.50000000 </v>
   <v>       0.50000000      -0.00000000       0.50000000 </v>
   <v>       0.50000000       0.50000000      -0.00000000 </v>
   <v>      -0.00000000       0.00000000       0.50000000 </v>
   <v>       0.50000000      -0.00000000      -0.00000000 </v>
   <v>       0.00000000       0.50000000       0.00000000 </v>
   <v>       0.50000000       0.50000000       0.50000000 </v>
  </varray>
 </structure>
</modeling>
