ni3al                                   
           1
     5.308827    0.000000    0.000000
     0.000000    5.308827    0.000000
     0.000000    0.000000    5.308827
   K    F 
     4     4
Direct configuration=     1
   0.00000000  0.00000000  0.00000000
   0.00000000  0.50000000  0.50000000
   0.50000000  0.00000000  0.50000000
   0.50000000  0.50000000  0.00000000
   0.00000000  0.00000000  0.50000000
   0.50000000  0.00000000  0.00000000
   0.00000000  0.50000000  0.00000000
   0.50000000  0.50000000  0.50000000
ni3al                                   
           1
     5.376386   -0.000000    0.000000
     0.000000    5.376386    0.000000
     0.000000    0.000000    5.376386
   K    F 
     4     4
Direct configuration=     2
  -0.00000000  0.00000000  0.00000000
  -0.00000000  0.50000000  0.50000000
   0.50000000 -0.00000000  0.50000000
   0.50000000  0.50000000 -0.00000000
  -0.00000000  0.00000000  0.50000000
   0.50000000 -0.00000000 -0.00000000
   0.00000000  0.50000000  0.00000000
   0.50000000  0.50000000  0.50000000
ni3al                                   
           1
     5.423607   -0.000000    0.000000
     0.000000    5.423607    0.000000
     0.000000    0.000000    5.423607
   K    F 
     4     4
Direct configuration=     3
  -0.00000000  0.00000000  0.00000000
  -0.00000000  0.50000000  0.50000000
   0.50000000 -0.00000000  0.50000000
   0.50000000  0.50000000 -0.00000000
  -0.00000000  0.00000000  0.50000000
   0.50000000 -0.00000000 -0.00000000
   0.00000000  0.50000000  0.00000000
   0.50000000  0.50000000  0.50000000
ni3al                                   
           1
     5.417779   -0.000000    0.000000
     0.000000    5.417779    0.000000
     0.000000    0.000000    5.417779
   K    F 
     4     4
Direct configuration=     4
  -0.00000000  0.00000000  0.00000000
  -0.00000000  0.50000000  0.50000000
   0.50000000 -0.00000000  0.50000000
   0.50000000  0.50000000 -0.00000000
  -0.00000000  0.00000000  0.50000000
   0.50000000 -0.00000000 -0.00000000
   0.00000000  0.50000000  0.00000000
   0.50000000  0.50000000  0.50000000
