  98  98   0   0
  0.1980059E+02  0.9284250E-09  0.1072053E-08  0.1949580E-08  0.5000000E-15
  1.000000000000000E-004
  CAR 
 ni3al                                   
      8.50684227    -31.10019320  301      1.93565960      1.00000000
    -31.100  0.0000E+00  0.0000E+00
    -30.968  0.0000E+00  0.0000E+00
    -30.836  0.0000E+00  0.0000E+00
    -30.704  0.0000E+00  0.0000E+00
    -30.572  0.0000E+00  0.0000E+00
    -30.440  0.0000E+00  0.0000E+00
    -30.308  0.0000E+00  0.0000E+00
    -30.176  0.0000E+00  0.0000E+00
    -30.044  0.0000E+00  0.0000E+00
    -29.912  0.0000E+00  0.0000E+00
    -29.780  0.8527E-10  0.1126E-10
    -29.648  0.6477E-05  0.8552E-06
    -29.516  0.1703E-01  0.2249E-02
    -29.384  0.1761E+01  0.2348E+00
    -29.252  0.9605E+01  0.1503E+01
    -29.120  0.3683E+01  0.1989E+01
    -28.988  0.8245E-01  0.2000E+01
    -28.856  0.7717E-04  0.2000E+01
    -28.724  0.2561E-08  0.2000E+01
    -28.592  0.3364E-14  0.2000E+01
    -28.460  0.0000E+00  0.2000E+01
    -28.328  0.0000E+00  0.2000E+01
    -28.196  0.0000E+00  0.2000E+01
    -28.064  0.0000E+00  0.2000E+01
    -27.932  0.0000E+00  0.2000E+01
    -27.800  0.0000E+00  0.2000E+01
    -27.668  0.0000E+00  0.2000E+01
    -27.536  0.0000E+00  0.2000E+01
    -27.404  0.0000E+00  0.2000E+01
    -27.272  0.0000E+00  0.2000E+01
    -27.139  0.0000E+00  0.2000E+01
    -27.007  0.0000E+00  0.2000E+01
    -26.875  0.0000E+00  0.2000E+01
    -26.743  0.0000E+00  0.2000E+01
    -26.611  0.0000E+00  0.2000E+01
    -26.479  0.0000E+00  0.2000E+01
    -26.347  0.0000E+00  0.2000E+01
    -26.215  0.0000E+00  0.2000E+01
    -26.083  0.0000E+00  0.2000E+01
    -25.951  0.0000E+00  0.2000E+01
    -25.819  0.0000E+00  0.2000E+01
    -25.687  0.0000E+00  0.2000E+01
    -25.555  0.0000E+00  0.2000E+01
    -25.423  0.0000E+00  0.2000E+01
    -25.291  0.0000E+00  0.2000E+01
    -25.159  0.0000E+00  0.2000E+01
    -25.027  0.0000E+00  0.2000E+01
    -24.895  0.0000E+00  0.2000E+01
    -24.763  0.0000E+00  0.2000E+01
    -24.631  0.0000E+00  0.2000E+01
    -24.499  0.0000E+00  0.2000E+01
    -24.367  0.0000E+00  0.2000E+01
    -24.235  0.0000E+00  0.2000E+01
    -24.103  0.1472E-11  0.2000E+01
    -23.971  0.3123E-06  0.2000E+01
    -23.839  0.2245E-02  0.2000E+01
    -23.707  0.6029E+00  0.2080E+01
    -23.575  0.7667E+01  0.3092E+01
    -23.443  0.6517E+01  0.3953E+01
    -23.311  0.3580E+00  0.4000E+01
    -23.179  0.8948E-03  0.4000E+01
    -23.047  0.8210E-07  0.4000E+01
    -22.915  0.2528E-12  0.4000E+01
    -22.783  0.0000E+00  0.4000E+01
    -22.651  0.0000E+00  0.4000E+01
    -22.519  0.0000E+00  0.4000E+01
    -22.387  0.0000E+00  0.4000E+01
    -22.255  0.0000E+00  0.4000E+01
    -22.123  0.0000E+00  0.4000E+01
    -21.991  0.0000E+00  0.4000E+01
    -21.859  0.0000E+00  0.4000E+01
    -21.727  0.0000E+00  0.4000E+01
    -21.595  0.0000E+00  0.4000E+01
    -21.462  0.0000E+00  0.4000E+01
    -21.330  0.0000E+00  0.4000E+01
    -21.198  0.0000E+00  0.4000E+01
    -21.066  0.0000E+00  0.4000E+01
    -20.934  0.0000E+00  0.4000E+01
    -20.802  0.0000E+00  0.4000E+01
    -20.670  0.0000E+00  0.4000E+01
    -20.538  0.0000E+00  0.4000E+01
    -20.406  0.0000E+00  0.4000E+01
    -20.274  0.0000E+00  0.4000E+01
    -20.142  0.0000E+00  0.4000E+01
    -20.010  0.0000E+00  0.4000E+01
    -19.878  0.0000E+00  0.4000E+01
    -19.746  0.0000E+00  0.4000E+01
    -19.614  0.0000E+00  0.4000E+01
    -19.482  0.0000E+00  0.4000E+01
    -19.350  0.0000E+00  0.4000E+01
    -19.218  0.0000E+00  0.4000E+01
    -19.086  0.0000E+00  0.4000E+01
    -18.954  0.0000E+00  0.4000E+01
    -18.822  0.0000E+00  0.4000E+01
    -18.690  0.0000E+00  0.4000E+01
    -18.558  0.0000E+00  0.4000E+01
    -18.426  0.0000E+00  0.4000E+01
    -18.294  0.0000E+00  0.4000E+01
    -18.162  0.0000E+00  0.4000E+01
    -18.030  0.0000E+00  0.4000E+01
    -17.898  0.0000E+00  0.4000E+01
    -17.766  0.0000E+00  0.4000E+01
    -17.634  0.0000E+00  0.4000E+01
    -17.502  0.0000E+00  0.4000E+01
    -17.370  0.0000E+00  0.4000E+01
    -17.238  0.0000E+00  0.4000E+01
    -17.106  0.0000E+00  0.4000E+01
    -16.974  0.0000E+00  0.4000E+01
    -16.842  0.0000E+00  0.4000E+01
    -16.710  0.0000E+00  0.4000E+01
    -16.578  0.0000E+00  0.4000E+01
    -16.446  0.0000E+00  0.4000E+01
    -16.314  0.0000E+00  0.4000E+01
    -16.182  0.0000E+00  0.4000E+01
    -16.050  0.0000E+00  0.4000E+01
    -15.917  0.0000E+00  0.4000E+01
    -15.785  0.0000E+00  0.4000E+01
    -15.653  0.0000E+00  0.4000E+01
    -15.521  0.0000E+00  0.4000E+01
    -15.389  0.0000E+00  0.4000E+01
    -15.257  0.0000E+00  0.4000E+01
    -15.125  0.0000E+00  0.4000E+01
    -14.993  0.0000E+00  0.4000E+01
    -14.861  0.0000E+00  0.4000E+01
    -14.729  0.0000E+00  0.4000E+01
    -14.597  0.0000E+00  0.4000E+01
    -14.465  0.0000E+00  0.4000E+01
    -14.333  0.0000E+00  0.4000E+01
    -14.201  0.8038E-11  0.4000E+01
    -14.069  0.5920E-06  0.4000E+01
    -13.937  0.1531E-02  0.4000E+01
    -13.805  0.1762E+00  0.4023E+01
    -13.673  0.1990E+01  0.4286E+01
    -13.541  0.5275E+01  0.4983E+01
    -13.409  0.4412E+01  0.5565E+01
    -13.277  0.4854E+01  0.6206E+01
    -13.145  0.7386E+01  0.7181E+01
    -13.013  0.3167E+01  0.7599E+01
    -12.881  0.1329E+02  0.9354E+01
    -12.749  0.3764E+02  0.1432E+02
    -12.617  0.1954E+02  0.1690E+02
    -12.485  0.1007E+02  0.1823E+02
    -12.353  0.1290E+02  0.1994E+02
    -12.221  0.1241E+02  0.2157E+02
    -12.089  0.6186E+01  0.2239E+02
    -11.957  0.1114E+02  0.2386E+02
    -11.825  0.1460E+02  0.2579E+02
    -11.693  0.9551E+01  0.2705E+02
    -11.561  0.1335E+02  0.2881E+02
    -11.429  0.1771E+02  0.3115E+02
    -11.297  0.1486E+02  0.3311E+02
    -11.165  0.1555E+02  0.3517E+02
    -11.033  0.2041E+02  0.3786E+02
    -10.901  0.1525E+02  0.3987E+02
    -10.769  0.2207E+02  0.4279E+02
    -10.637  0.2672E+02  0.4631E+02
    -10.505  0.1764E+02  0.4864E+02
    -10.373  0.2084E+02  0.5139E+02
    -10.240  0.2306E+02  0.5444E+02
    -10.108  0.2052E+02  0.5715E+02
     -9.976  0.3272E+02  0.6147E+02
     -9.844  0.2453E+02  0.6471E+02
     -9.712  0.1770E+02  0.6704E+02
     -9.580  0.2012E+02  0.6970E+02
     -9.448  0.2492E+02  0.7299E+02
     -9.316  0.2825E+02  0.7672E+02
     -9.184  0.2556E+02  0.8009E+02
     -9.052  0.1306E+02  0.8182E+02
     -8.920  0.1361E+01  0.8200E+02
     -8.788  0.1017E-01  0.8200E+02
     -8.656  0.1763E-02  0.8200E+02
     -8.524  0.2266E+00  0.8203E+02
     -8.392  0.2894E+01  0.8241E+02
     -8.260  0.6656E+01  0.8329E+02
     -8.128  0.7028E+01  0.8422E+02
     -7.996  0.8682E+01  0.8536E+02
     -7.864  0.8470E+01  0.8648E+02
     -7.732  0.1157E+02  0.8801E+02
     -7.600  0.2222E+02  0.9094E+02
     -7.468  0.4955E+02  0.9749E+02
     -7.336  0.6164E+02  0.1056E+03
     -7.204  0.2207E+02  0.1085E+03
     -7.072  0.9492E+01  0.1098E+03
     -6.940  0.7010E+01  0.1107E+03
     -6.808  0.9103E+01  0.1119E+03
     -6.676  0.9759E+01  0.1132E+03
     -6.544  0.1312E+02  0.1149E+03
     -6.412  0.1147E+02  0.1165E+03
     -6.280  0.1566E+02  0.1185E+03
     -6.148  0.2442E+02  0.1217E+03
     -6.016  0.2397E+02  0.1249E+03
     -5.884  0.2385E+02  0.1281E+03
     -5.752  0.2713E+02  0.1316E+03
     -5.620  0.2526E+02  0.1350E+03
     -5.488  0.2863E+02  0.1388E+03
     -5.356  0.2477E+02  0.1420E+03
     -5.224  0.1896E+02  0.1445E+03
     -5.092  0.1894E+02  0.1470E+03
     -4.960  0.2676E+02  0.1506E+03
     -4.828  0.3456E+02  0.1551E+03
     -4.696  0.3947E+02  0.1603E+03
     -4.563  0.3702E+02  0.1652E+03
     -4.431  0.3570E+02  0.1699E+03
     -4.299  0.3670E+02  0.1748E+03
     -4.167  0.3127E+02  0.1789E+03
     -4.035  0.2588E+02  0.1823E+03
     -3.903  0.2589E+02  0.1857E+03
     -3.771  0.2464E+02  0.1890E+03
     -3.639  0.1940E+02  0.1916E+03
     -3.507  0.2324E+02  0.1946E+03
     -3.375  0.1820E+02  0.1970E+03
     -3.243  0.1550E+02  0.1991E+03
     -3.111  0.1697E+02  0.2013E+03
     -2.979  0.2101E+02  0.2041E+03
     -2.847  0.3703E+02  0.2090E+03
     -2.715  0.5011E+02  0.2156E+03
     -2.583  0.5332E+02  0.2226E+03
     -2.451  0.4538E+02  0.2286E+03
     -2.319  0.4012E+02  0.2339E+03
     -2.187  0.2679E+02  0.2375E+03
     -2.055  0.2323E+02  0.2405E+03
     -1.923  0.3423E+02  0.2450E+03
     -1.791  0.3728E+02  0.2500E+03
     -1.659  0.4443E+02  0.2558E+03
     -1.527  0.4596E+02  0.2619E+03
     -1.395  0.4000E+02  0.2672E+03
     -1.263  0.4013E+02  0.2725E+03
     -1.131  0.4495E+02  0.2784E+03
     -0.999  0.5076E+02  0.2851E+03
     -0.867  0.5228E+02  0.2920E+03
     -0.735  0.4247E+02  0.2976E+03
     -0.603  0.3986E+02  0.3029E+03
     -0.471  0.3545E+02  0.3076E+03
     -0.339  0.3981E+02  0.3128E+03
     -0.207  0.5087E+02  0.3195E+03
     -0.075  0.5218E+02  0.3264E+03
      0.057  0.4226E+02  0.3320E+03
      0.189  0.4275E+02  0.3377E+03
      0.321  0.2849E+02  0.3414E+03
      0.453  0.2414E+02  0.3446E+03
      0.585  0.2509E+02  0.3479E+03
      0.717  0.2439E+02  0.3511E+03
      0.849  0.3783E+02  0.3561E+03
      0.982  0.4497E+02  0.3621E+03
      1.114  0.5280E+02  0.3690E+03
      1.246  0.4855E+02  0.3754E+03
      1.378  0.4351E+02  0.3812E+03
      1.510  0.3395E+02  0.3857E+03
      1.642  0.4382E+02  0.3915E+03
      1.774  0.3665E+02  0.3963E+03
      1.906  0.2275E+02  0.3993E+03
      2.038  0.2302E+02  0.4023E+03
      2.170  0.1713E+02  0.4046E+03
      2.302  0.1877E+02  0.4071E+03
      2.434  0.2170E+02  0.4099E+03
      2.566  0.1894E+02  0.4124E+03
      2.698  0.1465E+02  0.4144E+03
      2.830  0.1079E+02  0.4158E+03
      2.962  0.2000E+02  0.4184E+03
      3.094  0.1993E+02  0.4211E+03
      3.226  0.1505E+02  0.4231E+03
      3.358  0.1722E+02  0.4253E+03
      3.490  0.2502E+02  0.4286E+03
      3.622  0.2792E+02  0.4323E+03
      3.754  0.2947E+02  0.4362E+03
      3.886  0.2948E+02  0.4401E+03
      4.018  0.3301E+02  0.4445E+03
      4.150  0.2443E+02  0.4477E+03
      4.282  0.2427E+02  0.4509E+03
      4.414  0.2213E+02  0.4538E+03
      4.546  0.2028E+02  0.4565E+03
      4.678  0.1883E+02  0.4590E+03
      4.810  0.1144E+02  0.4605E+03
      4.942  0.1564E+02  0.4626E+03
      5.074  0.1664E+02  0.4648E+03
      5.206  0.2287E+02  0.4678E+03
      5.338  0.2281E+02  0.4708E+03
      5.470  0.2333E+02  0.4739E+03
      5.602  0.2649E+02  0.4774E+03
      5.734  0.2751E+02  0.4810E+03
      5.866  0.2727E+02  0.4846E+03
      5.998  0.2325E+02  0.4877E+03
      6.130  0.2450E+02  0.4909E+03
      6.262  0.2219E+02  0.4938E+03
      6.394  0.2118E+02  0.4966E+03
      6.526  0.1603E+02  0.4987E+03
      6.659  0.7671E+01  0.4998E+03
      6.791  0.1727E+01  0.5000E+03
      6.923  0.1585E+00  0.5000E+03
      7.055  0.1426E-02  0.5000E+03
      7.187  0.5400E-06  0.5000E+03
      7.319  0.7106E-11  0.5000E+03
      7.451  0.0000E+00  0.5000E+03
      7.583  0.0000E+00  0.5000E+03
      7.715  0.0000E+00  0.5000E+03
      7.847  0.0000E+00  0.5000E+03
      7.979  0.0000E+00  0.5000E+03
      8.111  0.0000E+00  0.5000E+03
      8.243  0.0000E+00  0.5000E+03
      8.375  0.0000E+00  0.5000E+03
      8.507  0.0000E+00  0.5000E+03
