       N       E                     dE             d eps       ncg     rms          rms(c)
DAV:   1     0.214193782321E+04    0.21419E+04   -0.16907E+05  3500   0.137E+03
DAV:   2    -0.390923757427E+03   -0.25329E+04   -0.24138E+04  4416   0.269E+02
DAV:   3    -0.705548205373E+03   -0.31462E+03   -0.30833E+03  4536   0.887E+01
DAV:   4    -0.723078980681E+03   -0.17531E+02   -0.17404E+02  4720   0.222E+01
DAV:   5    -0.723818345000E+03   -0.73936E+00   -0.73819E+00  4896   0.415E+00    0.448E+01
RMM:   6    -0.646527447335E+03    0.77291E+02   -0.23835E+02  3831   0.207E+01    0.161E+01
RMM:   7    -0.647955693239E+03   -0.14282E+01   -0.87338E+01  4211   0.136E+01    0.107E+01
RMM:   8    -0.646595336690E+03    0.13604E+01   -0.10314E+01  4156   0.534E+00    0.725E+00
RMM:   9    -0.646225978337E+03    0.36936E+00   -0.78828E+00  4019   0.422E+00    0.315E+00
RMM:  10    -0.645724714467E+03    0.50126E+00   -0.80932E-01  4244   0.166E+00    0.216E+00
RMM:  11    -0.645603589965E+03    0.12112E+00   -0.44694E-01  4921   0.905E-01    0.131E+00
RMM:  12    -0.645575371913E+03    0.28218E-01   -0.10672E+00  5132   0.131E+00    0.109E+00
RMM:  13    -0.645493999585E+03    0.81372E-01   -0.17852E-01  4145   0.627E-01    0.589E-01
RMM:  14    -0.645478252476E+03    0.15747E-01   -0.90255E-02  4805   0.430E-01    0.399E-01
RMM:  15    -0.645456885650E+03    0.21367E-01   -0.44818E-02  5119   0.253E-01    0.252E-01
RMM:  16    -0.645460199257E+03   -0.33136E-02   -0.42993E-02  5410   0.226E-01    0.432E-01
RMM:  17    -0.645459651741E+03    0.54752E-03   -0.16255E-02  5571   0.152E-01    0.197E-01
RMM:  18    -0.645461603467E+03   -0.19517E-02   -0.16018E-02  5349   0.166E-01    0.111E-01
RMM:  19    -0.645464451652E+03   -0.28482E-02   -0.56741E-03  6337   0.100E-01    0.134E-01
RMM:  20    -0.645467294181E+03   -0.28425E-02   -0.28920E-03  5996   0.611E-02    0.797E-02
RMM:  21    -0.645471009509E+03   -0.37153E-02   -0.24344E-03  5884   0.591E-02    0.599E-02
RMM:  22    -0.645471640606E+03   -0.63110E-03   -0.11603E-03  6336   0.388E-02    0.299E-02
RMM:  23    -0.645472356826E+03   -0.71622E-03   -0.61665E-04  6457   0.307E-02    0.253E-02
RMM:  24    -0.645472847714E+03   -0.49089E-03   -0.29379E-04  6359   0.208E-02    0.142E-02
RMM:  25    -0.645472986562E+03   -0.13885E-03   -0.17422E-04  6455   0.148E-02    0.991E-03
RMM:  26    -0.645473164973E+03   -0.17841E-03   -0.96574E-05  6489   0.122E-02    0.467E-03
RMM:  27    -0.645473248578E+03   -0.83605E-04   -0.61359E-05  5804   0.906E-03    0.481E-03
RMM:  28    -0.645473287701E+03   -0.39123E-04   -0.37158E-05  5281   0.711E-03    0.266E-03
RMM:  29    -0.645473312509E+03   -0.24808E-04   -0.24563E-05  5117   0.598E-03    0.116E-03
RMM:  30    -0.645473318488E+03   -0.59795E-05   -0.11944E-05  3983   0.449E-03    0.952E-04
RMM:  31    -0.645473322085E+03   -0.35970E-05   -0.88269E-06  3963   0.386E-03    0.798E-04
RMM:  32    -0.645473324078E+03   -0.19931E-05   -0.50782E-06  3438   0.331E-03    0.560E-04
RMM:  33    -0.645473325789E+03   -0.17110E-05   -0.46143E-06  3327   0.296E-03    0.415E-04
RMM:  34    -0.645473326575E+03   -0.78545E-06   -0.30291E-06  3080   0.262E-03
   1 F= -.64547333E+03 E0= -.64541392E+03  d E =-.118817E+00
