 vasp.6.3.2 27Jun22 (build Mar 15 2023 15:45:48) complex                        
  
 executed on             LinuxIFC date 2024.07.23  08:51:13
 running on    4 total cores
 distrk:  each k-point on    1 cores,    4 groups
 distr:  one band on NCORE=   1 cores,    1 groups


--------------------------------------------------------------------------------------------------------


 INCAR:
   SYSTEM = ni3al
   PREC = Accurate
   EDIFF = 1E-6
   EDIFFG = -1E-2
   ISTART = 0
   ICHARG = 2
   LREAL = Auto
   NSW = 0
   ISIF = 2
   IBRION = 1
   ISMEAR = 0
   SIGMA = 0.1
   ENCUT = 530
   ALGO = Fast
   LMAXMIX = 4
   AMIN = 0.01
   NELM = 150
   LCHARG = .FALSE.
   LWAVE = .TRUE.
   KPAR = 8
   NCORE = 4
   ISYM = 0

 POTCAR:   PAW_PBE C 08Apr2002                    
 POTCAR:   PAW_PBE F 08Apr2002                    
 POTCAR:   PAW_PBE Si 05Jan2001                   
 POTCAR:   PAW_PBE K_sv 06Sep2000                 
 POTCAR:   PAW_PBE C 08Apr2002                    
   VRHFIN =C: s2p2                                                                                  
   LEXCH  = PE                                                                                      
   EATOM  =   147.1560 eV,   10.8157 Ry                                                             
                                                                                                    
   TITEL  = PAW_PBE C 08Apr2002                                                                     
   LULTRA =        F    use ultrasoft PP ?                                                          
   IUNSCR =        0    unscreen: 0-lin 1-nonlin 2-no                                               
   RPACOR =     .000    partial core radius                                                         
   POMASS =   12.011; ZVAL   =    4.000    mass and valenz                                          
   RCORE  =    1.500    outmost cutoff radius                                                       
   RWIGS  =    1.630; RWIGS  =     .863    wigner-seitz radius (au A)                               
   ENMAX  =  400.000; ENMIN  =  300.000 eV                                                          
   ICORE  =        2    local potential                                                             
   LCOR   =        T    correct aug charges                                                         
   LPAW   =        T    paw PP                                                                      
   EAUG   =  644.873                                                                                
   DEXC   =     .000                                                                                
   RMAX   =    2.266    core radius for proj-oper                                                   
   RAUG   =    1.300    factor for augmentation sphere                                              
   RDEP   =    1.501    radius for radial grids                                                     
   RDEPT  =    1.300    core radius for aug-charge                                                  
   QCUT   =   -5.516; QGAM   =   11.032    optimization parameters                                  
                                                                                                    
   Description                                                                                      
     l     E      TYP  RCUT    TYP  RCUT                                                            
     0   .000     23  1.200                                                                         
     0   .000     23  1.200                                                                         
     1   .000     23  1.500                                                                         
     1  2.500     23  1.500                                                                         
     2   .000      7  1.500                                                                         
  local pseudopotential read in
  atomic valenz-charges read in
  non local Contribution for L=           0  read in
    real space projection operators read in
  non local Contribution for L=           0  read in
    real space projection operators read in
  non local Contribution for L=           1  read in
    real space projection operators read in
  non local Contribution for L=           1  read in
    real space projection operators read in
    PAW grid and wavefunctions read in
 
   number of l-projection  operators is LMAX  =           4
   number of lm-projection operators is LMMAX =           8
 
 POTCAR:   PAW_PBE F 08Apr2002                    
   VRHFIN =F: s2p5                                                                                  
   LEXCH  = PE                                                                                      
   EATOM  =   659.4942 eV,   48.4715 Ry                                                             
                                                                                                    
   TITEL  = PAW_PBE F 08Apr2002                                                                     
   LULTRA =        F    use ultrasoft PP ?                                                          
   IUNSCR =        0    unscreen: 0-lin 1-nonlin 2-no                                               
   RPACOR =     .000    partial core radius                                                         
   POMASS =   18.998; ZVAL   =    7.000    mass and valenz                                          
   RCORE  =    1.520    outmost cutoff radius                                                       
   RWIGS  =    1.500; RWIGS  =     .794    wigner-seitz radius (au A)                               
   ENMAX  =  400.000; ENMIN  =  300.000 eV                                                          
   ICORE  =        2    local potential                                                             
   LCOR   =        T    correct aug charges                                                         
   LPAW   =        T    paw PP                                                                      
   EAUG   =  613.614                                                                                
   DEXC   =     .000                                                                                
   RMAX   =    2.254    core radius for proj-oper                                                   
   RAUG   =    1.300    factor for augmentation sphere                                              
   RDEP   =    1.539    radius for radial grids                                                     
   QCUT   =   -5.545; QGAM   =   11.091    optimization parameters                                  
                                                                                                    
   Description                                                                                      
     l     E      TYP  RCUT    TYP  RCUT                                                            
     0   .000     23  1.200                                                                         
     0  -.700     23  1.200                                                                         
     1   .000     23  1.520                                                                         
     1   .100     23  1.520                                                                         
     2   .000      7  1.500                                                                         
  local pseudopotential read in
  atomic valenz-charges read in
  non local Contribution for L=           0  read in
    real space projection operators read in
  non local Contribution for L=           0  read in
    real space projection operators read in
  non local Contribution for L=           1  read in
    real space projection operators read in
  non local Contribution for L=           1  read in
    real space projection operators read in
    PAW grid and wavefunctions read in
 
   number of l-projection  operators is LMAX  =           4
   number of lm-projection operators is LMMAX =           8
 
 POTCAR:   PAW_PBE Si 05Jan2001                   
   VRHFIN =Si: s2p2                                                                                 
   LEXCH  = PE                                                                                      
   EATOM  =   103.0669 eV,    7.5752 Ry                                                             
                                                                                                    
   TITEL  = PAW_PBE Si 05Jan2001                                                                    
   LULTRA =        F    use ultrasoft PP ?                                                          
   IUNSCR =        1    unscreen: 0-lin 1-nonlin 2-no                                               
   RPACOR =    1.500    partial core radius                                                         
   POMASS =   28.085; ZVAL   =    4.000    mass and valenz                                          
   RCORE  =    1.900    outmost cutoff radius                                                       
   RWIGS  =    2.480; RWIGS  =    1.312    wigner-seitz radius (au A)                               
   ENMAX  =  245.345; ENMIN  =  184.009 eV                                                          
   ICORE  =        2    local potential                                                             
   LCOR   =        T    correct aug charges                                                         
   LPAW   =        T    paw PP                                                                      
   EAUG   =  322.069                                                                                
   DEXC   =    -.007                                                                                
   RMAX   =    2.944    core radius for proj-oper                                                   
   RAUG   =    1.300    factor for augmentation sphere                                              
   RDEP   =    1.993    radius for radial grids                                                     
   QCUT   =   -4.246; QGAM   =    8.493    optimization parameters                                  
                                                                                                    
   Description                                                                                      
     l     E      TYP  RCUT    TYP  RCUT                                                            
     0   .000     23  1.900                                                                         
     0   .000     23  1.900                                                                         
     1   .000     23  1.900                                                                         
     1   .000     23  1.900                                                                         
     2   .000      7  1.900                                                                         
  local pseudopotential read in
  partial core-charges read in
  atomic valenz-charges read in
  non local Contribution for L=           0  read in
    real space projection operators read in
  non local Contribution for L=           0  read in
    real space projection operators read in
  non local Contribution for L=           1  read in
    real space projection operators read in
  non local Contribution for L=           1  read in
    real space projection operators read in
    PAW grid and wavefunctions read in
 
   number of l-projection  operators is LMAX  =           4
   number of lm-projection operators is LMMAX =           8
 
 POTCAR:   PAW_PBE K_sv 06Sep2000                 
   VRHFIN =K:  3s3p4s                                                                               
   LEXCH  = PE                                                                                      
   EATOM  =   774.7423 eV,   56.9420 Ry                                                             
                                                                                                    
   TITEL  = PAW_PBE K_sv 06Sep2000                                                                  
   LULTRA =        F    use ultrasoft PP ?                                                          
   IUNSCR =        1    unscreen: 0-lin 1-nonlin 2-no                                               
   RPACOR =    2.200    partial core radius                                                         
   POMASS =   39.098; ZVAL   =    9.000    mass and valenz                                          
   RCORE  =    2.300    outmost cutoff radius                                                       
   RWIGS  =    3.000; RWIGS  =    1.588    wigner-seitz radius (au A)                               
   ENMAX  =  259.216; ENMIN  =  194.412 eV                                                          
   RCLOC  =    2.005    cutoff for local pot                                                        
   LCOR   =        T    correct aug charges                                                         
   LPAW   =        T    paw PP                                                                      
   EAUG   =  427.853                                                                                
   DEXC   =     .000                                                                                
   RMAX   =    2.864    core radius for proj-oper                                                   
   RAUG   =    1.300    factor for augmentation sphere                                              
   RDEP   =    2.372    radius for radial grids                                                     
   QCUT   =   -4.365; QGAM   =    8.730    optimization parameters                                  
                                                                                                    
   Description                                                                                      
     l     E      TYP  RCUT    TYP  RCUT                                                            
     0   .000     23  2.300                                                                         
     0   .000     23  2.300                                                                         
     1   .000     23  2.300                                                                         
     1 -1.500     23  2.300                                                                         
     2   .000     23  2.300                                                                         
  local pseudopotential read in
  partial core-charges read in
  atomic valenz-charges read in
  non local Contribution for L=           0  read in
    real space projection operators read in
  non local Contribution for L=           0  read in
    real space projection operators read in
  non local Contribution for L=           1  read in
    real space projection operators read in
  non local Contribution for L=           1  read in
    real space projection operators read in
  non local Contribution for L=           2  read in
    real space projection operators read in
    PAW grid and wavefunctions read in
 
   number of l-projection  operators is LMAX  =           5
   number of lm-projection operators is LMMAX =          13
 
 Optimization of the real space projectors (new method)

 maximal supplied QI-value         = 25.13
 optimisation between [QCUT,QGAM] = [ 11.56, 23.37] = [ 37.43,152.99] Ry 
 Optimized for a Real-space Cutoff    1.07 Angstroem

   l    n(q)    QCUT    max X(q) W(low)/X(q) W(high)/X(q)  e(spline) 
   0      7    11.561     5.582    0.43E-04    0.82E-04    0.19E-07
   0      7    11.561    69.432    0.18E-03    0.47E-03    0.23E-06
   1      7    11.561     2.780    0.18E-04    0.55E-04    0.48E-07
   1      7    11.561     4.549    0.18E-03    0.21E-03    0.13E-06
 Optimization of the real space projectors (new method)

 maximal supplied QI-value         = 24.76
 optimisation between [QCUT,QGAM] = [ 11.64, 23.52] = [ 37.91,154.88] Ry 
 Optimized for a Real-space Cutoff    1.07 Angstroem

   l    n(q)    QCUT    max X(q) W(low)/X(q) W(high)/X(q)  e(spline) 
   0      7    11.635     4.906    0.42E-04    0.10E-03    0.40E-07
   0      7    11.635     5.365    0.10E-03    0.31E-03    0.19E-06
   1      7    11.635     2.511    0.38E-04    0.13E-03    0.21E-07
   1      7    11.635     3.801    0.24E-03    0.28E-03    0.21E-06
 Optimization of the real space projectors (new method)

 maximal supplied QI-value         = 19.84
 optimisation between [QCUT,QGAM] = [ 11.71, 23.41] = [ 38.38,153.51] Ry 
 Optimized for a Real-space Cutoff    1.20 Angstroem

   l    n(q)    QCUT    max X(q) W(low)/X(q) W(high)/X(q)  e(spline) 
   0      8    11.707     8.708    0.17E-04    0.67E-05    0.45E-08
   0      8    11.707   106.241    0.59E-04    0.18E-03    0.53E-07
   1      8    11.707     5.901    0.60E-05    0.19E-04    0.21E-07
   1      8    11.707    73.241    0.22E-03    0.21E-04    0.75E-07
 Optimization of the real space projectors (new method)

 maximal supplied QI-value         = 16.25
 optimisation between [QCUT,QGAM] = [ 11.70, 23.56] = [ 38.34,155.50] Ry 
 Optimized for a Real-space Cutoff    1.35 Angstroem

   l    n(q)    QCUT    max X(q) W(low)/X(q) W(high)/X(q)  e(spline) 
   0     10    11.701     6.336    0.13E-04    0.76E-05    0.61E-08
   0     10    11.701    13.439    0.24E-04    0.57E-04    0.47E-07
   1      9    11.701     3.724    0.22E-04    0.12E-04    0.26E-07
   1      9    11.701    38.716    0.12E-03    0.50E-03    0.44E-06
   2      9    11.701     3.434    0.48E-04    0.68E-04    0.36E-07
 PAW_PBE C 08Apr2002                    :
 energy of atom  1       EATOM= -147.1560
 kinetic energy error for atom=    0.0069 (will be added to EATOM!!)
 PAW_PBE F 08Apr2002                    :
 energy of atom  2       EATOM= -659.4942
 kinetic energy error for atom=    0.0313 (will be added to EATOM!!)
 PAW_PBE Si 05Jan2001                   :
 energy of atom  3       EATOM= -103.0669
 kinetic energy error for atom=    0.0005 (will be added to EATOM!!)
 PAW_PBE K_sv 06Sep2000                 :
 energy of atom  4       EATOM= -774.7423
 kinetic energy error for atom=    0.0012 (will be added to EATOM!!)
 
 
 POSCAR: POSCAR
  positions in direct lattice
  velocities in cartesian coordinates
 exchange correlation table for  LEXCH =        8
   RHO(1)=    0.500       N(1)  =     2000
   RHO(2)=  100.500       N(2)  =     4000

 VTST: version 4.2, (08/11/21)

 CHAIN: initializing optimizer
 
 OPT: Using VASP QUASI-newton optimizer
 CHAIN: Read ICHAIN            0
 
 POSCAR: POSCAR
  positions in direct lattice
  velocities in cartesian coordinates
 


--------------------------------------------------------------------------------------------------------


 ion  position               nearest neighbor table
   1  0.000  0.000  0.000-  50 1.90
   2  0.167  0.250  0.000-  51 1.90
   3  0.000  0.000  0.389-  80 1.89  57 1.89  73 1.89  52 1.91
   4  0.167  0.250  0.389-  53 1.89  64 1.89  57 1.89  56 1.89
   5  0.000  0.167  0.130-  50 1.90  51 1.90  67 1.90  54 1.90
   6  0.167  0.417  0.130-  51 1.90  82 1.90  74 1.90  55 1.90
   7  0.000  0.333  0.260-  55 1.89  71 1.89  54 1.89  56 1.90
   8  0.167  0.083  0.260-  62 1.89  54 1.89  79 1.89  57 1.90
   9  0.333  0.000  0.000-  58 1.90
  10  0.500  0.250  0.000-  59 1.90
  11  0.333  0.000  0.389-  57 1.89  88 1.89  65 1.89  60 1.90
  12  0.500  0.250  0.389-  65 1.89  64 1.89  72 1.89  61 1.90
  13  0.333  0.167  0.130-  58 1.90  51 1.90  59 1.90  62 1.90
  14  0.500  0.417  0.130-  59 1.90  82 1.90  90 1.90  63 1.90
  15  0.333  0.333  0.260-  55 1.89  63 1.89  62 1.89  64 1.90
  16  0.500  0.083  0.260-  87 1.89  70 1.89  62 1.89  65 1.90
  17  0.667  0.000  0.000-  66 1.90
  18  0.833  0.250  0.000-  67 1.90
  19  0.667  0.000  0.389-  96 1.89  73 1.89  65 1.89  68 1.90
  20  0.833  0.250  0.389-  73 1.89  72 1.89  56 1.89  69 1.90
  21  0.667  0.167  0.130-  66 1.90  67 1.90  59 1.90  70 1.90
  22  0.833  0.417  0.130-  67 1.90  90 1.90  74 1.90  71 1.90
  23  0.667  0.333  0.260-  71 1.89  63 1.89  70 1.89  72 1.90
  24  0.833  0.083  0.260-  70 1.89  54 1.89  95 1.89  73 1.90
  25  0.000  0.500  0.000-  74 1.90
  26  0.167  0.750  0.000-  75 1.90
  27  0.000  0.500  0.389-  56 1.89  81 1.89  97 1.89  76 1.91
  28  0.167  0.750  0.389-  81 1.89  88 1.89  80 1.89  77 1.99
  29  0.000  0.667  0.130-  74 1.90  75 1.90  91 1.90  78 1.90
  30  0.167  0.917  0.130-  75 1.90  58 1.90  50 1.90  79 1.90
  31  0.000  0.833  0.260-  79 1.89  95 1.89  78 1.89  80 1.90
  32  0.167  0.583  0.260-  86 1.89  78 1.89  55 1.89  81 1.90
  33  0.333  0.500  0.000-  82 1.90
  34  0.500  0.750  0.000-  83 1.90
  35  0.333  0.500  0.389-  64 1.89  81 1.89  89 1.89  84 1.93
  36  0.500  0.750  0.389-  89 1.89  88 1.89  96 1.89  85 1.92
  37  0.333  0.667  0.130-  82 1.90  75 1.90  83 1.90  86 1.90
  38  0.500  0.917  0.130-  58 1.90  66 1.90  83 1.90  87 1.90
  39  0.333  0.833  0.260-  79 1.89  87 1.89  86 1.89  88 1.90
  40  0.500  0.583  0.260-  86 1.89  94 1.89  63 1.89  89 1.90
  41  0.667  0.500  0.000-  90 1.90
  42  0.833  0.750  0.000-  91 1.90
  43  0.667  0.500  0.389-  72 1.89  97 1.89  89 1.89  92 1.90
  44  0.833  0.750  0.389-  97 1.89  96 1.89  80 1.89  93 1.90
  45  0.667  0.667  0.130-  90 1.90  91 1.90  83 1.90  94 1.90
  46  0.833  0.917  0.130-  66 1.90  50 1.90  91 1.90  95 1.90
  47  0.667  0.833  0.260-  95 1.89  87 1.89  94 1.89  96 1.90
  48  0.833  0.583  0.260-  94 1.89  78 1.89  71 1.89  97 1.90
  49  0.171  0.735  0.550-  77 1.66  98 2.67
  50  0.000  0.000  0.098-   5 1.90  46 1.90  30 1.90   1 1.90  58 3.09  66 3.09  51 3.09  67 3.09
                            75 3.09  91 3.09  54 3.10  95 3.10  79 3.10
  51  0.167  0.250  0.098-   6 1.90  13 1.90   5 1.90   2 1.90  59 3.09  58 3.09  82 3.09  74 3.09
                            50 3.09  67 3.09  55 3.10  62 3.10  54 3.10
  52  0.975  0.989  0.486-   3 1.91  77 2.47  68 2.85  93 2.90  73 3.02  80 3.03  69 3.13
  53  0.163  0.255  0.486-   4 1.89  84 2.78  76 2.85  69 2.98  61 3.05  56 3.05  64 3.09  57 3.11

  54  0.000  0.167  0.228-  24 1.89   8 1.89   7 1.89   5 1.90  95 3.09  70 3.09  62 3.09  71 3.09
                            79 3.09  55 3.09  73 3.10  57 3.10  56 3.10  50 3.10  67 3.10  51 3.10
  55  0.167  0.417  0.228-  15 1.89   7 1.89  32 1.89   6 1.90  63 3.09  62 3.09  86 3.09  78 3.09
                            54 3.09  71 3.09  64 3.10  56 3.10  81 3.10  51 3.10  82 3.10  74 3.10
  56  0.000  0.333  0.357-  27 1.89  20 1.89   4 1.89   7 1.90  76 2.94  69 3.04  53 3.05  72 3.09
                            64 3.09  73 3.09  81 3.09  97 3.09  57 3.09  71 3.10  55 3.10  54 3.10
  57  0.167  0.083  0.357-  11 1.89   3 1.89   4 1.89   8 1.90  88 3.09  80 3.09  65 3.09  73 3.09
                            64 3.09  56 3.09  62 3.10  54 3.10  79 3.10  53 3.11
  58  0.333  0.000  0.098-  13 1.90  30 1.90  38 1.90   9 1.90  50 3.09  51 3.09  75 3.09  59 3.09
                            83 3.09  66 3.09  62 3.10  79 3.10  87 3.10
  59  0.500  0.250  0.098-  14 1.90  13 1.90  21 1.90  10 1.90  51 3.09  67 3.09  66 3.09  58 3.09
                            82 3.09  90 3.09  63 3.10  62 3.10  70 3.10
  60  0.354  0.992  0.486-  11 1.90  77 2.49  85 2.89  68 2.91  65 3.02  88 3.04  61 3.06
  61  0.491  0.252  0.487-  12 1.90  84 2.76  53 3.05  64 3.05  60 3.06  65 3.11  72 3.13
  62  0.333  0.167  0.228-   8 1.89  16 1.89  15 1.89  13 1.90  87 3.09  54 3.09  79 3.09  55 3.09
                            63 3.09  70 3.09  57 3.10  65 3.10  64 3.10  58 3.10  51 3.10  59 3.10
  63  0.500  0.417  0.228-  15 1.89  23 1.89  40 1.89  14 1.90  55 3.09  71 3.09  70 3.09  62 3.09
                            86 3.09  94 3.09  64 3.10  72 3.10  89 3.10  59 3.10  90 3.10  82 3.10
  64  0.333  0.333  0.357-  35 1.89   4 1.89  12 1.89  15 1.90  84 2.92  61 3.05  53 3.09  56 3.09
                            81 3.09  89 3.09  72 3.09  57 3.09  65 3.09  55 3.10  63 3.10  62 3.10
  65  0.500  0.083  0.357-  11 1.89  19 1.89  12 1.89  16 1.90  60 3.02  88 3.09  96 3.09  57 3.09
                            73 3.09  72 3.09  64 3.09  87 3.10  70 3.10  62 3.10  61 3.11  68 3.14
  66  0.667  0.000  0.098-  46 1.90  21 1.90  38 1.90  17 1.90  50 3.09  67 3.09  91 3.09  83 3.09
                            59 3.09  58 3.09  95 3.10  70 3.10  87 3.10
  67  0.833  0.250  0.098-  22 1.90  21 1.90   5 1.90  18 1.90  59 3.09  66 3.09  90 3.09  74 3.09
                            50 3.09  51 3.09  71 3.10  70 3.10  54 3.10
  68  0.668  0.986  0.486-  19 1.90  85 2.72  93 2.79  52 2.85  60 2.91  96 3.00  73 3.13  65 3.14

  69  0.842  0.257  0.487-  20 1.90  76 2.72  53 2.98  92 3.02  56 3.04  72 3.11  52 3.13  73 3.14

  70  0.667  0.167  0.228-  24 1.89  16 1.89  23 1.89  21 1.90  95 3.09  87 3.09  54 3.09  71 3.09
                            63 3.09  62 3.09  73 3.10  65 3.10  72 3.10  66 3.10  67 3.10  59 3.10
  71  0.833  0.417  0.228-  23 1.89   7 1.89  48 1.89  22 1.90  63 3.09  70 3.09  94 3.09  78 3.09
                            54 3.09  55 3.09  72 3.10  56 3.10  97 3.10  67 3.10  90 3.10  74 3.10
  72  0.667  0.333  0.357-  43 1.89  20 1.89  12 1.89  23 1.90  56 3.09  73 3.09  97 3.09  89 3.09
                            64 3.09  65 3.09  71 3.10  63 3.10  70 3.10  92 3.11  69 3.11  61 3.13
  73  0.833  0.083  0.357-  20 1.89  19 1.89   3 1.89  24 1.90  52 3.02  65 3.09  72 3.09  96 3.09
                            80 3.09  56 3.09  57 3.09  70 3.10  54 3.10  95 3.10  68 3.13  69 3.14
  74  0.000  0.500  0.098-  29 1.90  22 1.90   6 1.90  25 1.90  82 3.09  90 3.09  75 3.09  51 3.09
                            67 3.09  91 3.09  78 3.10  71 3.10  55 3.10
  75  0.167  0.750  0.098-  30 1.90  37 1.90  29 1.90  26 1.90  83 3.09  82 3.09  58 3.09  50 3.09
                            74 3.09  91 3.09  79 3.10  86 3.10  78 3.10
  76  0.991  0.475  0.486-  27 1.91  69 2.72  53 2.85  92 2.90  56 2.94  97 3.14
  77  0.165  0.827  0.482-  49 1.66  28 1.99  52 2.47  60 2.49  80 2.88  88 2.90
  78  0.000  0.667  0.228-  32 1.89  48 1.89  31 1.89  29 1.90  86 3.09  94 3.09  79 3.09  55 3.09
                            71 3.09  95 3.09  81 3.10  97 3.10  80 3.10  74 3.10  91 3.10  75 3.10
  79  0.167  0.917  0.228-  39 1.89  31 1.89   8 1.89  30 1.90  87 3.09  86 3.09  62 3.09  54 3.09
                            78 3.09  95 3.09  88 3.10  80 3.10  57 3.10  75 3.10  58 3.10  50 3.10
  80  0.000  0.833  0.357-   3 1.89  28 1.89  44 1.89  31 1.90  77 2.88  52 3.03  57 3.09  88 3.09
                            96 3.09  73 3.09  81 3.09  97 3.09  79 3.10  95 3.10  78 3.10
  81  0.167  0.583  0.357-  28 1.89  35 1.89  27 1.89  32 1.90  89 3.09  88 3.09  64 3.09  56 3.09
                            80 3.09  97 3.09  86 3.10  78 3.10  55 3.10
  82  0.333  0.500  0.098-  37 1.90   6 1.90  14 1.90  33 1.90  74 3.09  51 3.09  75 3.09  59 3.09
                            83 3.09  90 3.09  86 3.10  55 3.10  63 3.10
  83  0.500  0.750  0.098-  38 1.90  37 1.90  45 1.90  34 1.90  75 3.09  91 3.09  58 3.09  82 3.09
                            90 3.09  66 3.09  87 3.10  86 3.10  94 3.10
  84  0.332  0.469  0.487-  35 1.93  61 2.76  53 2.78  64 2.92
  85  0.523  0.765  0.487-  36 1.92  93 2.69  68 2.72  60 2.89  96 2.95
  86  0.333  0.667  0.228-  32 1.89  40 1.89  39 1.89  37 1.90  78 3.09  55 3.09  79 3.09  63 3.09
                            94 3.09  87 3.09  81 3.10  89 3.10  88 3.10  82 3.10  75 3.10  83 3.10
  87  0.500  0.917  0.228-  16 1.89  39 1.89  47 1.89  38 1.90  62 3.09  70 3.09  95 3.09  79 3.09
                            94 3.09  86 3.09  65 3.10  88 3.10  96 3.10  66 3.10  58 3.10  83 3.10
  88  0.333  0.833  0.357-  11 1.89  28 1.89  36 1.89  39 1.90  77 2.90  60 3.04  57 3.09  65 3.09
                            80 3.09  81 3.09  89 3.09  96 3.09  79 3.10  87 3.10  86 3.10
  89  0.500  0.583  0.357-  36 1.89  35 1.89  43 1.89  40 1.90  81 3.09  97 3.09  64 3.09  88 3.09
                            96 3.09  72 3.09  86 3.10  94 3.10  63 3.10
  90  0.667  0.500  0.098-  45 1.90  22 1.90  14 1.90  41 1.90  74 3.09  67 3.09  91 3.09  83 3.09
                            59 3.09  82 3.09  94 3.10  71 3.10  63 3.10
  91  0.833  0.750  0.098-  45 1.90  46 1.90  29 1.90  42 1.90  83 3.09  66 3.09  90 3.09  50 3.09
                            74 3.09  75 3.09  94 3.10  95 3.10  78 3.10
  92  0.680  0.502  0.487-  43 1.90  76 2.90  93 3.00  69 3.02  97 3.03  72 3.11
  93  0.812  0.758  0.486-  44 1.90  85 2.69  68 2.79  52 2.90  96 2.97  92 3.00  97 3.14
  94  0.667  0.667  0.228-  48 1.89  40 1.89  47 1.89  45 1.90  78 3.09  71 3.09  63 3.09  86 3.09
                            95 3.09  87 3.09  97 3.10  89 3.10  96 3.10  90 3.10  91 3.10  83 3.10
  95  0.833  0.917  0.228-  47 1.89  31 1.89  24 1.89  46 1.90  70 3.09  54 3.09  87 3.09  79 3.09
                            94 3.09  78 3.09  96 3.10  80 3.10  73 3.10  66 3.10  50 3.10  91 3.10
  96  0.667  0.833  0.357-  19 1.89  44 1.89  36 1.89  47 1.90  85 2.95  93 2.97  68 3.00  65 3.09
                            80 3.09  73 3.09  97 3.09  89 3.09  88 3.09  95 3.10  87 3.10  94 3.10
  97  0.833  0.583  0.357-  44 1.89  43 1.89  27 1.89  48 1.90  92 3.03  89 3.09  72 3.09  96 3.09
                            80 3.09  56 3.09  81 3.09  94 3.10  78 3.10  71 3.10  76 3.14  93 3.14
  98  0.363  0.642  0.638-  49 2.67
 

IMPORTANT INFORMATION: All symmetrisations will be switched off!
NOSYMM: (Re-)initialisation of all symmetry stuff for point group C_1.


----------------------------------------------------------------------------------------

                                     Primitive cell                                     

  volume of cell :    1940.4575

  direct lattice vectors                    reciprocal lattice vectors
     9.284250000  0.000000000  0.000000000     0.107709293  0.000000000  0.000000000
     0.000000000 10.720530000  0.000000000     0.000000000  0.093278970  0.000000000
     0.000000000  0.000000000 19.495800000     0.000000000  0.000000000  0.051293099

  length of vectors
     9.284250000 10.720530000 19.495800000     0.107709293  0.093278970  0.051293099

  position of ions in fractional coordinates (direct lattice)
     0.000000000  0.000000000  0.000000000
     0.166667000  0.250000000  0.000000000
     0.000000000  0.000000000  0.389445000
     0.166667000  0.250000000  0.389445000
     0.000000000  0.166666000  0.130180000
     0.166667000  0.416666000  0.130180000
     0.000000000  0.333334000  0.259852000
     0.166667000  0.083333000  0.259852000
     0.333333000  0.000000000  0.000000000
     0.500000000  0.250000000  0.000000000
     0.333333000  0.000000000  0.389445000
     0.500000000  0.250000000  0.389445000
     0.333333000  0.166666000  0.130180000
     0.500000000  0.416666000  0.130180000
     0.333333000  0.333334000  0.259852000
     0.500000000  0.083333000  0.259852000
     0.666667000  0.000000000  0.000000000
     0.833333000  0.250000000  0.000000000
     0.666667000  0.000000000  0.389445000
     0.833333000  0.250000000  0.389445000
     0.666667000  0.166666000  0.130180000
     0.833333000  0.416666000  0.130180000
     0.666667000  0.333334000  0.259852000
     0.833333000  0.083334000  0.259852000
     0.000000000  0.500000000  0.000000000
     0.166667000  0.750000000  0.000000000
     0.000000000  0.500000000  0.389445000
     0.166667000  0.750000000  0.389445000
     0.000000000  0.666666000  0.130180000
     0.166667000  0.916666000  0.130180000
     0.000000000  0.833334000  0.259852000
     0.166667000  0.583334000  0.259852000
     0.333333000  0.500000000  0.000000000
     0.500000000  0.750000000  0.000000000
     0.333333000  0.500000000  0.389445000
     0.500000000  0.750000000  0.389445000
     0.333333000  0.666666000  0.130180000
     0.500000000  0.916667000  0.130180000
     0.333333000  0.833334000  0.259852000
     0.500000000  0.583334000  0.259852000
     0.666667000  0.500000000  0.000000000
     0.833333000  0.750000000  0.000000000
     0.666667000  0.500000000  0.389445000
     0.833333000  0.750000000  0.389445000
     0.666667000  0.666666000  0.130180000
     0.833333000  0.916667000  0.130180000
     0.666667000  0.833334000  0.259852000
     0.833333000  0.583334000  0.259852000
     0.170522455  0.734655240  0.550276692
     0.000000000  0.000000000  0.097624000
     0.166667000  0.250000000  0.097624000
     0.975117928  0.989014289  0.486487830
     0.162602499  0.254841129  0.486139706
     0.000000000  0.166666000  0.227532000
     0.166667000  0.416666000  0.227532000
     0.000000000  0.333334000  0.357207000
     0.166667000  0.083333000  0.357207000
     0.333333000  0.000000000  0.097624000
     0.500000000  0.250000000  0.097624000
     0.354359826  0.991928827  0.486167950
     0.491117298  0.251507655  0.486879459
     0.333333000  0.166666000  0.227532000
     0.500000000  0.416666000  0.227532000
     0.333333000  0.333334000  0.357207000
     0.500000000  0.083333000  0.357207000
     0.666667000  0.000000000  0.097624000
     0.833333000  0.250000000  0.097624000
     0.668187434  0.985737138  0.486411466
     0.841645049  0.257220476  0.486917080
     0.666667000  0.166666000  0.227532000
     0.833333000  0.416666000  0.227532000
     0.666667000  0.333334000  0.357207000
     0.833333000  0.083334000  0.357207000
     0.000000000  0.500000000  0.097624000
     0.166667000  0.750000000  0.097624000
     0.991394814  0.475200387  0.486277398
     0.164766340  0.827157145  0.482143006
     0.000000000  0.666666000  0.227532000
     0.166667000  0.916666000  0.227532000
     0.000000000  0.833334000  0.357207000
     0.166667000  0.583334000  0.357207000
     0.333333000  0.500000000  0.097624000
     0.500000000  0.750000000  0.097624000
     0.332156242  0.468862426  0.486997646
     0.523083811  0.765497901  0.486780179
     0.333333000  0.666666000  0.227532000
     0.500000000  0.916667000  0.227532000
     0.333333000  0.833334000  0.357207000
     0.500000000  0.583334000  0.357207000
     0.666667000  0.500000000  0.097624000
     0.833333000  0.750000000  0.097624000
     0.680227157  0.502267668  0.486926170
     0.812399031  0.757870875  0.486098234
     0.666667000  0.666666000  0.227532000
     0.833333000  0.916667000  0.227532000
     0.666667000  0.833334000  0.357207000
     0.833333000  0.583334000  0.357207000
     0.362772997  0.642423765  0.638238781

  ion indices of the primitive-cell ions
   primitive index   ion index
                 1           1
                 2           2
                 3           3
                 4           4
                 5           5
                 6           6
                 7           7
                 8           8
                 9           9
                10          10
                11          11
                12          12
                13          13
                14          14
                15          15
                16          16
                17          17
                18          18
                19          19
                20          20
                21          21
                22          22
                23          23
                24          24
                25          25
                26          26
                27          27
                28          28
                29          29
                30          30
                31          31
                32          32
                33          33
                34          34
                35          35
                36          36
                37          37
                38          38
                39          39
                40          40
                41          41
                42          42
                43          43
                44          44
                45          45
                46          46
                47          47
                48          48
                49          49
                50          50
                51          51
                52          52
                53          53
                54          54
                55          55
                56          56
                57          57
                58          58
                59          59
                60          60
                61          61
                62          62
                63          63
                64          64
                65          65
                66          66
                67          67
                68          68
                69          69
                70          70
                71          71
                72          72
                73          73
                74          74
                75          75
                76          76
                77          77
                78          78
                79          79
                80          80
                81          81
                82          82
                83          83
                84          84
                85          85
                86          86
                87          87
                88          88
                89          89
                90          90
                91          91
                92          92
                93          93
                94          94
                95          95
                96          96
                97          97
                98          98

----------------------------------------------------------------------------------------

 
 
 KPOINTS: K-Spacing Value to Generate K-Mesh: 0.03

Automatic generation of k-mesh.
 Grid dimensions read from file:
 generate k-points for:    4    3    1

 Generating k-lattice:

  Cartesian coordinates                     Fractional coordinates (reciprocal lattice)
     0.026927323  0.000000000  0.000000000     0.250000000  0.000000000  0.000000000
     0.000000000  0.031092990  0.000000000     0.000000000  0.333333333  0.000000000
     0.000000000  0.000000000  0.051293099     0.000000000  0.000000000  1.000000000

  Length of vectors
     0.026927323  0.031092990  0.051293099

  Shift w.r.t. Gamma in fractional coordinates (k-lattice)
     0.000000000  0.000000000  0.000000000

 
 Subroutine IBZKPT returns following result:
 ===========================================
 
 Found      7 irreducible k-points:
 
 Following reciprocal coordinates:
            Coordinates               Weight
  0.000000  0.000000  0.000000      1.000000
  0.250000  0.000000  0.000000      2.000000
  0.500000  0.000000  0.000000      1.000000
  0.000000  0.333333  0.000000      2.000000
  0.250000  0.333333  0.000000      2.000000
  0.250000 -0.333333  0.000000      2.000000
  0.500000  0.333333  0.000000      2.000000
 
 Following cartesian coordinates:
            Coordinates               Weight
  0.000000  0.000000  0.000000      1.000000
  0.026927  0.000000  0.000000      2.000000
  0.053855  0.000000  0.000000      1.000000
  0.000000  0.031093  0.000000      2.000000
  0.026927  0.031093  0.000000      2.000000
  0.026927 -0.031093  0.000000      2.000000
  0.053855  0.031093  0.000000      2.000000
 


--------------------------------------------------------------------------------------------------------




 Dimension of arrays:
   k-points           NKPTS =      7   k-points in BZ     NKDIM =      7   number of bands    NBANDS=    250
   number of dos      NEDOS =    301   number of ions     NIONS =     98
   non local maximal  LDIM  =      5   non local SUM 2l+1 LMDIM =     13
   total plane-waves  NPLWV = 840000
   max r-space proj   IRMAX =   4509   max aug-charges    IRDMAX=  20346
   dimension x,y,z NGX =    70 NGY =   80 NGZ =  150
   dimension x,y,z NGXF=   140 NGYF=  160 NGZF=  300
   support grid    NGXF=   140 NGYF=  160 NGZF=  300
   ions per type =              48   1  48   1
   NGX,Y,Z   is equivalent  to a cutoff of  12.53, 12.41, 12.79 a.u.
   NGXF,Y,Z  is equivalent  to a cutoff of  25.07, 24.81, 25.58 a.u.

 SYSTEM =  ni3al                                   
 POSCAR =  POSCAR                                  

 Startparameter for this run:
   NWRITE =      2    write-flag & timer
   PREC   = accura    normal or accurate (medium, high low for compatibility)
   ISTART =      0    job   : 0-new  1-cont  2-samecut
   ICHARG =      2    charge: 1-file 2-atom 10-const
   ISPIN  =      1    spin polarized calculation?
   LNONCOLLINEAR =      F non collinear calculations
   LSORBIT =      F    spin-orbit coupling
   INIWAV =      1    electr: 0-lowe 1-rand  2-diag
   LASPH  =      F    aspherical Exc in radial PAW
 Electronic Relaxation 1
   ENCUT  =  530.0 eV  38.95 Ry    6.24 a.u.  17.43 20.12 36.60*2*pi/ulx,y,z
   ENINI  =  530.0     initial cutoff
   ENAUG  =  644.9 eV  augmentation charge cutoff
   NELM   =    150;   NELMIN=  2; NELMDL= -5     # of ELM steps 
   EDIFF  = 0.1E-05   stopping-criterion for ELM
   LREAL  =      T    real-space projection
   NLSPLINE    = F    spline interpolate recip. space projectors
   LCOMPAT=      F    compatible to vasp.4.4
   GGA_COMPAT  = T    GGA compatible to vasp.4.4-vasp.4.6
   LMAXPAW     = -100 max onsite density
   LMAXMIX     =    4 max onsite mixed and CHGCAR
   VOSKOWN=      0    Vosko Wilk Nusair interpolation
   ROPT   =   -0.00025  -0.00025  -0.00025  -0.00025
 Ionic relaxation
   EDIFFG = -.1E-01   stopping-criterion for IOM
   NSW    =      0    number of steps for IOM
   NBLOCK =      1;   KBLOCK =      1    inner block; outer block 
   IBRION =     -1    ionic relax: 0-MD 1-quasi-New 2-CG
   NFREE  =      0    steps in history (QN), initial steepest desc. (CG)
   ISIF   =      2    stress and relaxation
   IWAVPR =     10    prediction:  0-non 1-charg 2-wave 3-comb
   ISYM   =      0    0-nonsym 1-usesym 2-fastsym
   LCORR  =      T    Harris-Foulkes like correction to forces

   POTIM  = 0.5000    time-step for ionic-motion
   TEIN   =    0.0    initial temperature
   TEBEG  =    0.0;   TEEND  =   0.0 temperature during run
   SMASS  =  -3.00    Nose mass-parameter (am)
   estimated Nose-frequenzy (Omega)   =  0.10E-29 period in steps = 0.13E+47 mass=  -0.197E-26a.u.
   SCALEE = 1.0000    scale energy and forces
   NPACO  =    256;   APACO  = 10.0  distance and # of slots for P.C.
   PSTRESS=    0.0 pullay stress

  Mass of Ions in am
   POMASS =  12.01 19.00 28.09 39.10
  Ionic Valenz
   ZVAL   =   4.00  7.00  4.00  9.00
  Atomic Wigner-Seitz radii
   RWIGS  =  -1.00 -1.00 -1.00 -1.00
  virtual crystal weights 
   VCA    =   1.00  1.00  1.00  1.00
   NELECT =     400.0000    total number of electrons
   NUPDOWN=      -1.0000    fix difference up-down

 DOS related values:
   EMIN   =  10.00;   EMAX   =-10.00  energy-range for DOS
   EFERMI =   0.00
   ISMEAR =     0;   SIGMA  =   0.10  broadening in eV -4-tet -1-fermi 0-gaus

 Electronic relaxation 2 (details)
   IALGO  =     68    algorithm
   LDIAG  =      T    sub-space diagonalisation (order eigenvalues)
   LSUBROT=      F    optimize rotation matrix (better conditioning)
   TURBO    =      0    0=normal 1=particle mesh
   IRESTART =      0    0=no restart 2=restart with 2 vectors
   NREBOOT  =      0    no. of reboots
   NMIN     =      0    reboot dimension
   EREF     =   0.00    reference energy to select bands
   IMIX   =      4    mixing-type and parameters
     AMIX     =   0.40;   BMIX     =  1.00
     AMIX_MAG =   1.60;   BMIX_MAG =  1.00
     AMIN     =   0.01
     WC   =   100.;   INIMIX=   1;  MIXPRE=   1;  MAXMIX= -45

 Intra band minimization:
   WEIMIN = 0.0000     energy-eigenvalue tresh-hold
   EBREAK =  0.10E-08  absolut break condition
   DEPER  =   0.30     relativ break condition  

   TIME   =   0.40     timestep for ELM

  volume/ion in A,a.u.               =      19.80       133.62
  Fermi-wavevector in a.u.,A,eV,Ry     =   0.967075  1.827507 12.724629  0.935234
  Thomas-Fermi vector in A             =   2.096930
 
 Write flags
   LWAVE        =      T    write WAVECAR
   LDOWNSAMPLE  =      F    k-point downsampling of WAVECAR
   LCHARG       =      F    write CHGCAR
   LVTOT        =      F    write LOCPOT, total local potential
   LVHAR        =      F    write LOCPOT, Hartree potential only
   LELF         =      F    write electronic localiz. function (ELF)
   LORBIT       =      0    0 simple, 1 ext, 2 COOP (PROOUT), +10 PAW based schemes


 Dipole corrections
   LMONO  =      F    monopole corrections only (constant potential shift)
   LDIPOL =      F    correct potential (dipole corrections)
   IDIPOL =      0    1-x, 2-y, 3-z, 4-all directions 
   EPSILON=  1.0000000 bulk dielectric constant

 Exchange correlation treatment:
   GGA     =    --    GGA type
   LEXCH   =     8    internal setting for exchange type
   LIBXC   =     F    Libxc                    
   VOSKOWN =     0    Vosko Wilk Nusair interpolation
   LHFCALC =     F    Hartree Fock is set to
   LHFONE  =     F    Hartree Fock one center treatment
   AEXX    =    0.0000 exact exchange contribution

 Linear response parameters
   LEPSILON=     F    determine dielectric tensor
   LRPA    =     F    only Hartree local field effects (RPA)
   LNABLA  =     F    use nabla operator in PAW spheres
   LVEL    =     F    velocity operator in full k-point grid
   CSHIFT  =0.1000    complex shift for real part using Kramers Kronig
   OMEGAMAX=  -1.0    maximum frequency
   DEG_THRESHOLD= 0.2000000E-02 threshold for treating states as degnerate
   RTIME   =   -0.100 relaxation time in fs
  (WPLASMAI=    0.000 imaginary part of plasma frequency in eV, 0.658/RTIME)
   DFIELD  = 0.0000000 0.0000000 0.0000000 field for delta impulse in time
 
  Optional k-point grid parameters
   LKPOINTS_OPT  =     F    use optional k-point grid
   KPOINTS_OPT_MODE=     1    mode for optional k-point grid
 
 Orbital magnetization related:
   ORBITALMAG=     F  switch on orbital magnetization
   LCHIMAG   =     F  perturbation theory with respect to B field
   DQ        =  0.001000  dq finite difference perturbation B field
   LLRAUG    =     F  two centre corrections for induced B field



--------------------------------------------------------------------------------------------------------


 Static calculation
 charge density and potential will be updated during run
 non-spin polarized calculation
 RMM-DIIS sequential band-by-band and
  variant of blocked Davidson during initial phase
 perform sub-space diagonalisation
    before iterative eigenvector-optimisation
 modified Broyden-mixing scheme, WC =      100.0
 initial mixing is a Kerker type mixing with AMIX =  0.4000 and BMIX =      1.0000
 Hartree-type preconditioning will be used
 using additional bands           50
 real space projection scheme for non local part
 use partial core corrections
 calculate Harris-corrections to forces 
   (improved forces if not selfconsistent)
 use gradient corrections 
 use of overlap-Matrix (Vanderbilt PP)
 Gauss-broadening in eV      SIGMA  =   0.10


--------------------------------------------------------------------------------------------------------


  energy-cutoff  :      530.00
  volume of cell :     1940.46
      direct lattice vectors                 reciprocal lattice vectors
     9.284250000  0.000000000  0.000000000     0.107709293  0.000000000  0.000000000
     0.000000000 10.720530000  0.000000000     0.000000000  0.093278970  0.000000000
     0.000000000  0.000000000 19.495800000     0.000000000  0.000000000  0.051293099

  length of vectors
     9.284250000 10.720530000 19.495800000     0.107709293  0.093278970  0.051293099


 
 k-points in units of 2pi/SCALE and weight: K-Spacing Value to Generate K-Mesh: 0.03
   0.00000000  0.00000000  0.00000000       0.083
   0.02692732  0.00000000  0.00000000       0.167
   0.05385465  0.00000000  0.00000000       0.083
   0.00000000  0.03109299  0.00000000       0.167
   0.02692732  0.03109299  0.00000000       0.167
   0.02692732 -0.03109299  0.00000000       0.167
   0.05385465  0.03109299  0.00000000       0.167
 
 k-points in reciprocal lattice and weights: K-Spacing Value to Generate K-Mesh: 0.03
   0.00000000  0.00000000  0.00000000       0.083
   0.25000000  0.00000000  0.00000000       0.167
   0.50000000  0.00000000  0.00000000       0.083
   0.00000000  0.33333333  0.00000000       0.167
   0.25000000  0.33333333  0.00000000       0.167
   0.25000000 -0.33333333  0.00000000       0.167
   0.50000000  0.33333333  0.00000000       0.167
 
 position of ions in fractional coordinates (direct lattice) 
   0.00000000  0.00000000  0.00000000
   0.16666700  0.25000000  0.00000000
   0.00000000  0.00000000  0.38944500
   0.16666700  0.25000000  0.38944500
   0.00000000  0.16666600  0.13018000
   0.16666700  0.41666600  0.13018000
   0.00000000  0.33333400  0.25985200
   0.16666700  0.08333300  0.25985200
   0.33333300  0.00000000  0.00000000
   0.50000000  0.25000000  0.00000000
   0.33333300  0.00000000  0.38944500
   0.50000000  0.25000000  0.38944500
   0.33333300  0.16666600  0.13018000
   0.50000000  0.41666600  0.13018000
   0.33333300  0.33333400  0.25985200
   0.50000000  0.08333300  0.25985200
   0.66666700  0.00000000  0.00000000
   0.83333300  0.25000000  0.00000000
   0.66666700  0.00000000  0.38944500
   0.83333300  0.25000000  0.38944500
   0.66666700  0.16666600  0.13018000
   0.83333300  0.41666600  0.13018000
   0.66666700  0.33333400  0.25985200
   0.83333300  0.08333400  0.25985200
   0.00000000  0.50000000  0.00000000
   0.16666700  0.75000000  0.00000000
   0.00000000  0.50000000  0.38944500
   0.16666700  0.75000000  0.38944500
   0.00000000  0.66666600  0.13018000
   0.16666700  0.91666600  0.13018000
   0.00000000  0.83333400  0.25985200
   0.16666700  0.58333400  0.25985200
   0.33333300  0.50000000  0.00000000
   0.50000000  0.75000000  0.00000000
   0.33333300  0.50000000  0.38944500
   0.50000000  0.75000000  0.38944500
   0.33333300  0.66666600  0.13018000
   0.50000000  0.91666700  0.13018000
   0.33333300  0.83333400  0.25985200
   0.50000000  0.58333400  0.25985200
   0.66666700  0.50000000  0.00000000
   0.83333300  0.75000000  0.00000000
   0.66666700  0.50000000  0.38944500
   0.83333300  0.75000000  0.38944500
   0.66666700  0.66666600  0.13018000
   0.83333300  0.91666700  0.13018000
   0.66666700  0.83333400  0.25985200
   0.83333300  0.58333400  0.25985200
   0.17052245  0.73465524  0.55027669
   0.00000000  0.00000000  0.09762400
   0.16666700  0.25000000  0.09762400
   0.97511793  0.98901429  0.48648783
   0.16260250  0.25484113  0.48613971
   0.00000000  0.16666600  0.22753200
   0.16666700  0.41666600  0.22753200
   0.00000000  0.33333400  0.35720700
   0.16666700  0.08333300  0.35720700
   0.33333300  0.00000000  0.09762400
   0.50000000  0.25000000  0.09762400
   0.35435983  0.99192883  0.48616795
   0.49111730  0.25150766  0.48687946
   0.33333300  0.16666600  0.22753200
   0.50000000  0.41666600  0.22753200
   0.33333300  0.33333400  0.35720700
   0.50000000  0.08333300  0.35720700
   0.66666700  0.00000000  0.09762400
   0.83333300  0.25000000  0.09762400
   0.66818743  0.98573714  0.48641147
   0.84164505  0.25722048  0.48691708
   0.66666700  0.16666600  0.22753200
   0.83333300  0.41666600  0.22753200
   0.66666700  0.33333400  0.35720700
   0.83333300  0.08333400  0.35720700
   0.00000000  0.50000000  0.09762400
   0.16666700  0.75000000  0.09762400
   0.99139481  0.47520039  0.48627740
   0.16476634  0.82715715  0.48214301
   0.00000000  0.66666600  0.22753200
   0.16666700  0.91666600  0.22753200
   0.00000000  0.83333400  0.35720700
   0.16666700  0.58333400  0.35720700
   0.33333300  0.50000000  0.09762400
   0.50000000  0.75000000  0.09762400
   0.33215624  0.46886243  0.48699765
   0.52308381  0.76549790  0.48678018
   0.33333300  0.66666600  0.22753200
   0.50000000  0.91666700  0.22753200
   0.33333300  0.83333400  0.35720700
   0.50000000  0.58333400  0.35720700
   0.66666700  0.50000000  0.09762400
   0.83333300  0.75000000  0.09762400
   0.68022716  0.50226767  0.48692617
   0.81239903  0.75787088  0.48609823
   0.66666700  0.66666600  0.22753200
   0.83333300  0.91666700  0.22753200
   0.66666700  0.83333400  0.35720700
   0.83333300  0.58333400  0.35720700
   0.36277300  0.64242376  0.63823878
 
 position of ions in cartesian coordinates  (Angst):
   0.00000000  0.00000000  0.00000000
   1.54737809  2.68013250  0.00000000
   0.00000000  0.00000000  7.59254183
   1.54737809  2.68013250  7.59254183
   0.00000000  1.78674785  2.53796324
   1.54737809  4.46688035  2.53796324
   0.00000000  3.57351715  5.06602262
   1.54737809  0.89337393  5.06602262
   3.09474691  0.00000000  0.00000000
   4.64212500  2.68013250  0.00000000
   3.09474691  0.00000000  7.59254183
   4.64212500  2.68013250  7.59254183
   3.09474691  1.78674785  2.53796324
   4.64212500  4.46688035  2.53796324
   3.09474691  3.57351715  5.06602262
   4.64212500  0.89337393  5.06602262
   6.18950309  0.00000000  0.00000000
   7.73687191  2.68013250  0.00000000
   6.18950309  0.00000000  7.59254183
   7.73687191  2.68013250  7.59254183
   6.18950309  1.78674785  2.53796324
   7.73687191  4.46688035  2.53796324
   6.18950309  3.57351715  5.06602262
   7.73687191  0.89338465  5.06602262
   0.00000000  5.36026500  0.00000000
   1.54737809  8.04039750  0.00000000
   0.00000000  5.36026500  7.59254183
   1.54737809  8.04039750  7.59254183
   0.00000000  7.14701285  2.53796324
   1.54737809  9.82714535  2.53796324
   0.00000000  8.93378215  5.06602262
   1.54737809  6.25364965  5.06602262
   3.09474691  5.36026500  0.00000000
   4.64212500  8.04039750  0.00000000
   3.09474691  5.36026500  7.59254183
   4.64212500  8.04039750  7.59254183
   3.09474691  7.14701285  2.53796324
   4.64212500  9.82715607  2.53796324
   3.09474691  8.93378215  5.06602262
   4.64212500  6.25364965  5.06602262
   6.18950309  5.36026500  0.00000000
   7.73687191  8.04039750  0.00000000
   6.18950309  5.36026500  7.59254183
   7.73687191  8.04039750  7.59254183
   6.18950309  7.14701285  2.53796324
   7.73687191  9.82715607  2.53796324
   6.18950309  8.93378215  5.06602262
   7.73687191  6.25364965  5.06602262
   1.58317310  7.87589354 10.72808434
   0.00000000  0.00000000  1.90325798
   1.54737809  2.68013250  1.90325798
   9.05323862 10.60275735  9.48446943
   1.50964225  2.73203197  9.47768247
   0.00000000  1.78674785  4.43591837
   1.54737809  4.46688035  4.43591837
   0.00000000  3.57351715  6.96403623
   1.54737809  0.89337393  6.96403623
   3.09474691  0.00000000  1.90325798
   4.64212500  2.68013250  1.90325798
   3.28996521 10.63400275  9.47823312
   4.55965577  2.69629536  9.49210455
   3.09474691  1.78674785  4.43591837
   4.64212500  4.46688035  4.43591837
   3.09474691  3.57351715  6.96403623
   4.64212500  0.89337393  6.96403623
   6.18950309  0.00000000  1.90325798
   7.73687191  2.68013250  1.90325798
   6.20361918 10.56762456  9.48298066
   7.81404305  2.75753983  9.49283801
   6.18950309  1.78674785  4.43591837
   7.73687191  4.46688035  4.43591837
   6.18950309  3.57351715  6.96403623
   7.73687191  0.89338465  6.96403623
   0.00000000  5.36026500  1.90325798
   1.54737809  8.04039750  1.90325798
   9.20435730  5.09440001  9.48036690
   1.52973189  8.86756299  9.39976362
   0.00000000  7.14701285  4.43591837
   1.54737809  9.82714535  4.43591837
   0.00000000  8.93378215  6.96403623
   1.54737809  6.25364965  6.96403623
   3.09474691  5.36026500  1.90325798
   4.64212500  8.04039750  1.90325798
   3.08382159  5.02645370  9.49440870
   4.85644087  8.20654321  9.49016902
   3.09474691  7.14701285  4.43591837
   4.64212500  9.82715607  4.43591837
   3.09474691  8.93378215  6.96403623
   4.64212500  6.25364965  6.96403623
   6.18950309  5.36026500  1.90325798
   7.73687191  8.04039750  1.90325798
   6.31539898  5.38457560  9.49301523
   7.54251570  8.12477746  9.47687396
   6.18950309  7.14701285  4.43591837
   7.73687191  9.82715607  4.43591837
   6.18950309  8.93378215  6.96403623
   7.73687191  6.25364965  6.96403623
   3.36807520  6.88712324 12.44297564
 


--------------------------------------------------------------------------------------------------------


 k-point   1 :   0.0000 0.0000 0.0000  plane waves:   53799
 k-point   2 :   0.2500 0.0000 0.0000  plane waves:   53755
 k-point   3 :   0.5000 0.0000 0.0000  plane waves:   53770
 k-point   4 :   0.0000 0.3333 0.0000  plane waves:   53790
 k-point   5 :   0.2500 0.3333 0.0000  plane waves:   53786
 k-point   6 :   0.2500-0.3333 0.0000  plane waves:   53786
 k-point   7 :   0.5000 0.3333 0.0000  plane waves:   53718

 maximum and minimum number of plane-waves per node :     53799    53718

 maximum number of plane-waves:     53799
 maximum index in each direction: 
   IXMAX=   17   IYMAX=   20   IZMAX=   36
   IXMIN=  -17   IYMIN=  -20   IZMIN=  -36


 serial   3D FFT for wavefunctions
 parallel 3D FFT for charge:
    minimum data exchange during FFTs selected (reduces bandwidth)


 total amount of memory used by VASP MPI-rank0  1243188. kBytes
=======================================================================

   base      :      30000. kBytes
   nonlr-proj:      25564. kBytes
   fftplans  :     230088. kBytes
   grid      :     520038. kBytes
   one-center:        794. kBytes
   wavefun   :     436704. kBytes
 
     INWAV:  cpu time      0.0004: real time      0.0000
 Broyden mixing: mesh for mixing (old mesh)
   NGX = 35   NGY = 41   NGZ = 73
  (NGX  =140   NGY  =160   NGZ  =300)
  gives a total of 104755 points

 initial charge density was supplied:
 charge density of overlapping atoms calculated
 number of electron     400.0000000 magnetization 
 keeping initial charge density in first step


--------------------------------------------------------------------------------------------------------


 Maximum index for non-local projection operator         4331
 Maximum index for augmentation-charges        19554 (set IRDMAX)


--------------------------------------------------------------------------------------------------------


 First call to EWALD:  gamma=   0.142
 Maximum number of real-space cells 4x 3x 2
 Maximum number of reciprocal cells 2x 2x 4

    FEWALD:  cpu time      0.0213: real time      0.0107


--------------------------------------- Iteration      1(   1)  ---------------------------------------


    POTLOK:  cpu time      9.4946: real time      1.6240
    SETDIJ:  cpu time      1.1520: real time      0.1648
     EDDAV:  cpu time     43.7848: real time      6.2868
       DOS:  cpu time      0.0182: real time      0.0026
    --------------------------------------------
      LOOP:  cpu time     54.4501: real time      8.0782

 eigenvalue-minimisations  :  3500
 total energy-change (2. order) : 0.2141938E+04  (-0.1690712E+05)
 number of electron     400.0000000 magnetization 
 augmentation part      400.0000000 magnetization 

 Free energy of the ion-electron system (eV)
  ---------------------------------------------------
  alpha Z        PSCENC =       318.41319391
  Ewald energy   TEWEN  =     30862.42824000
  -Hartree energ DENC   =    -43920.85597450
  -exchange      EXHF   =         0.00000000
  -V(xc)+E(xc)   XCENC  =       283.03995574
  PAW double counting   =      4337.97084573    -3548.78544197
  entropy T*S    EENTRO =        -0.10762916
  eigenvalues    EBANDS =       365.28800399
  atomic energy  EATOM  =     13444.54662946
  Solvation  Ediel_sol  =         0.00000000
  ---------------------------------------------------
  free energy    TOTEN  =      2141.93782321 eV

  energy without entropy =     2142.04545236  energy(sigma->0) =     2141.99163779


--------------------------------------------------------------------------------------------------------




--------------------------------------- Iteration      1(   2)  ---------------------------------------


     EDDAV:  cpu time     52.4300: real time      7.5094
       DOS:  cpu time      0.0140: real time      0.0020
    --------------------------------------------
      LOOP:  cpu time     52.4438: real time      7.5114

 eigenvalue-minimisations  :  4416
 total energy-change (2. order) :-0.2532862E+04  (-0.2413779E+04)
 number of electron     400.0000000 magnetization 
 augmentation part      400.0000000 magnetization 

 Free energy of the ion-electron system (eV)
  ---------------------------------------------------
  alpha Z        PSCENC =       318.41319391
  Ewald energy   TEWEN  =     30862.42824000
  -Hartree energ DENC   =    -43920.85597450
  -exchange      EXHF   =         0.00000000
  -V(xc)+E(xc)   XCENC  =       283.03995574
  PAW double counting   =      4337.97084573    -3548.78544197
  entropy T*S    EENTRO =        -0.08180009
  eigenvalues    EBANDS =     -2167.59940572
  atomic energy  EATOM  =     13444.54662946
  Solvation  Ediel_sol  =         0.00000000
  ---------------------------------------------------
  free energy    TOTEN  =      -390.92375743 eV

  energy without entropy =     -390.84195734  energy(sigma->0) =     -390.88285738


--------------------------------------------------------------------------------------------------------




--------------------------------------- Iteration      1(   3)  ---------------------------------------


     EDDAV:  cpu time     53.2836: real time      7.6429
       DOS:  cpu time      0.0142: real time      0.0020
    --------------------------------------------
      LOOP:  cpu time     53.2979: real time      7.6450

 eigenvalue-minimisations  :  4536
 total energy-change (2. order) :-0.3146244E+03  (-0.3083300E+03)
 number of electron     400.0000000 magnetization 
 augmentation part      400.0000000 magnetization 

 Free energy of the ion-electron system (eV)
  ---------------------------------------------------
  alpha Z        PSCENC =       318.41319391
  Ewald energy   TEWEN  =     30862.42824000
  -Hartree energ DENC   =    -43920.85597450
  -exchange      EXHF   =         0.00000000
  -V(xc)+E(xc)   XCENC  =       283.03995574
  PAW double counting   =      4337.97084573    -3548.78544197
  entropy T*S    EENTRO =        -0.10085585
  eigenvalues    EBANDS =     -2482.20479790
  atomic energy  EATOM  =     13444.54662946
  Solvation  Ediel_sol  =         0.00000000
  ---------------------------------------------------
  free energy    TOTEN  =      -705.54820537 eV

  energy without entropy =     -705.44734952  energy(sigma->0) =     -705.49777745


--------------------------------------------------------------------------------------------------------




--------------------------------------- Iteration      1(   4)  ---------------------------------------


     EDDAV:  cpu time     54.4256: real time      7.8330
       DOS:  cpu time      0.0148: real time      0.0021
    --------------------------------------------
      LOOP:  cpu time     54.4404: real time      7.8351

 eigenvalue-minimisations  :  4720
 total energy-change (2. order) :-0.1753078E+02  (-0.1740402E+02)
 number of electron     400.0000000 magnetization 
 augmentation part      400.0000000 magnetization 

 Free energy of the ion-electron system (eV)
  ---------------------------------------------------
  alpha Z        PSCENC =       318.41319391
  Ewald energy   TEWEN  =     30862.42824000
  -Hartree energ DENC   =    -43920.85597450
  -exchange      EXHF   =         0.00000000
  -V(xc)+E(xc)   XCENC  =       283.03995574
  PAW double counting   =      4337.97084573    -3548.78544197
  entropy T*S    EENTRO =        -0.10970505
  eigenvalues    EBANDS =     -2499.72672401
  atomic energy  EATOM  =     13444.54662946
  Solvation  Ediel_sol  =         0.00000000
  ---------------------------------------------------
  free energy    TOTEN  =      -723.07898068 eV

  energy without entropy =     -722.96927563  energy(sigma->0) =     -723.02412816


--------------------------------------------------------------------------------------------------------




--------------------------------------- Iteration      1(   5)  ---------------------------------------


     EDDAV:  cpu time     56.3296: real time      8.0725
       DOS:  cpu time      0.0153: real time      0.0022
    CHARGE:  cpu time      2.5602: real time      0.4607
    MIXING:  cpu time      0.7134: real time      0.1021
    --------------------------------------------
      LOOP:  cpu time     59.6191: real time      8.6375

 eigenvalue-minimisations  :  4896
 total energy-change (2. order) :-0.7393643E+00  (-0.7381880E+00)
 number of electron     399.9999967 magnetization 
 augmentation part       -1.5847027 magnetization 

 Broyden mixing:
  rms(total) = 0.44759E+01    rms(broyden)= 0.44751E+01
  rms(prec ) = 0.52864E+01
  weight for this iteration     100.00

 Free energy of the ion-electron system (eV)
  ---------------------------------------------------
  alpha Z        PSCENC =       318.41319391
  Ewald energy   TEWEN  =     30862.42824000
  -Hartree energ DENC   =    -43920.85597450
  -exchange      EXHF   =         0.00000000
  -V(xc)+E(xc)   XCENC  =       283.03995574
  PAW double counting   =      4337.97084573    -3548.78544197
  entropy T*S    EENTRO =        -0.11014353
  eigenvalues    EBANDS =     -2500.46564985
  atomic energy  EATOM  =     13444.54662946
  Solvation  Ediel_sol  =         0.00000000
  ---------------------------------------------------
  free energy    TOTEN  =      -723.81834500 eV

  energy without entropy =     -723.70820147  energy(sigma->0) =     -723.76327324


--------------------------------------------------------------------------------------------------------




--------------------------------------- Iteration      1(   6)  ---------------------------------------


    POTLOK:  cpu time      9.3687: real time      1.5831
    SETDIJ:  cpu time      0.7023: real time      0.1004
    EDDIAG:  cpu time      3.3819: real time      0.6827
  RMM-DIIS:  cpu time      6.8065: real time      3.0648
    ORTHCH:  cpu time      0.1280: real time      0.0648
       DOS:  cpu time      0.0045: real time      0.0022
    CHARGE:  cpu time      1.5999: real time      0.4329
    MIXING:  cpu time      0.5636: real time      0.0808
    --------------------------------------------
      LOOP:  cpu time     22.5552: real time      6.0116

 eigenvalue-minimisations  :  3831
 total energy-change (2. order) : 0.7729090E+02  (-0.2383456E+02)
 number of electron     399.9999972 magnetization 
 augmentation part       -3.8837200 magnetization 

 Broyden mixing:
  rms(total) = 0.16131E+01    rms(broyden)= 0.16129E+01
  rms(prec ) = 0.19976E+01
  weight for this iteration     100.00

 eigenvalues of (default mixing * dielectric matrix)
  average eigenvalue GAMMA=   1.2311
  1.2311

 Free energy of the ion-electron system (eV)
  ---------------------------------------------------
  alpha Z        PSCENC =       318.41319391
  Ewald energy   TEWEN  =     30862.42824000
  -Hartree energ DENC   =    -44321.61593634
  -exchange      EXHF   =         0.00000000
  -V(xc)+E(xc)   XCENC  =       311.64300063
  PAW double counting   =      5090.43128835    -4307.54759366
  entropy T*S    EENTRO =        -0.11324607
  eigenvalues    EBANDS =     -2044.71302361
  atomic energy  EATOM  =     13444.54662946
  Solvation  Ediel_sol  =         0.00000000
  ---------------------------------------------------
  free energy    TOTEN  =      -646.52744733 eV

  energy without entropy =     -646.41420126  energy(sigma->0) =     -646.47082430


--------------------------------------------------------------------------------------------------------




--------------------------------------- Iteration      1(   7)  ---------------------------------------


    POTLOK:  cpu time      9.3992: real time      1.5862
    SETDIJ:  cpu time      0.8243: real time      0.1178
    EDDIAG:  cpu time      3.0999: real time      0.6539
  RMM-DIIS:  cpu time      7.5210: real time      3.3491
    ORTHCH:  cpu time      0.1282: real time      0.0650
       DOS:  cpu time      0.0041: real time      0.0020
    CHARGE:  cpu time      1.5848: real time      0.4323
    MIXING:  cpu time      0.5707: real time      0.0816
    --------------------------------------------
      LOOP:  cpu time     23.1322: real time      6.2879

 eigenvalue-minimisations  :  4211
 total energy-change (2. order) :-0.1428246E+01  (-0.8733845E+01)
 number of electron     399.9999974 magnetization 
 augmentation part       -4.3709305 magnetization 

 Broyden mixing:
  rms(total) = 0.10722E+01    rms(broyden)= 0.10719E+01
  rms(prec ) = 0.15359E+01
  weight for this iteration     100.00

 eigenvalues of (default mixing * dielectric matrix)
  average eigenvalue GAMMA=   0.9255
  1.1714  0.6795

 Free energy of the ion-electron system (eV)
  ---------------------------------------------------
  alpha Z        PSCENC =       318.41319391
  Ewald energy   TEWEN  =     30862.42824000
  -Hartree energ DENC   =    -44449.93028973
  -exchange      EXHF   =         0.00000000
  -V(xc)+E(xc)   XCENC  =       319.87735325
  PAW double counting   =      5345.89349167    -4565.12928334
  entropy T*S    EENTRO =        -0.09935253
  eigenvalues    EBANDS =     -1923.95567592
  atomic energy  EATOM  =     13444.54662946
  Solvation  Ediel_sol  =         0.00000000
  ---------------------------------------------------
  free energy    TOTEN  =      -647.95569324 eV

  energy without entropy =     -647.85634071  energy(sigma->0) =     -647.90601697


--------------------------------------------------------------------------------------------------------




--------------------------------------- Iteration      1(   8)  ---------------------------------------


    POTLOK:  cpu time      9.3951: real time      1.5863
    SETDIJ:  cpu time      0.7098: real time      0.1019
    EDDIAG:  cpu time      3.1859: real time      0.6570
  RMM-DIIS:  cpu time      7.5334: real time      3.3414
    ORTHCH:  cpu time      0.1286: real time      0.0652
       DOS:  cpu time      0.0041: real time      0.0021
    CHARGE:  cpu time      1.5512: real time      0.4266
    MIXING:  cpu time      0.6822: real time      0.0975
    --------------------------------------------
      LOOP:  cpu time     23.1903: real time      6.2779

 eigenvalue-minimisations  :  4156
 total energy-change (2. order) : 0.1360357E+01  (-0.1031390E+01)
 number of electron     399.9999974 magnetization 
 augmentation part       -4.8147614 magnetization 

 Broyden mixing:
  rms(total) = 0.72529E+00    rms(broyden)= 0.72526E+00
  rms(prec ) = 0.78923E+00
  weight for this iteration     100.00

 eigenvalues of (default mixing * dielectric matrix)
  average eigenvalue GAMMA=   1.4480
  2.1948  1.6211  0.5280

 Free energy of the ion-electron system (eV)
  ---------------------------------------------------
  alpha Z        PSCENC =       318.41319391
  Ewald energy   TEWEN  =     30862.42824000
  -Hartree energ DENC   =    -44477.77487108
  -exchange      EXHF   =         0.00000000
  -V(xc)+E(xc)   XCENC  =       322.47538821
  PAW double counting   =      5411.19442602    -4630.98679201
  entropy T*S    EENTRO =        -0.10970876
  eigenvalues    EBANDS =     -1896.78184244
  atomic energy  EATOM  =     13444.54662946
  Solvation  Ediel_sol  =         0.00000000
  ---------------------------------------------------
  free energy    TOTEN  =      -646.59533669 eV

  energy without entropy =     -646.48562793  energy(sigma->0) =     -646.54048231


--------------------------------------------------------------------------------------------------------




--------------------------------------- Iteration      1(   9)  ---------------------------------------


    POTLOK:  cpu time      9.3829: real time      1.5839
    SETDIJ:  cpu time      0.8478: real time      0.1211
    EDDIAG:  cpu time      3.0923: real time      0.6535
  RMM-DIIS:  cpu time      7.1159: real time      3.1442
    ORTHCH:  cpu time      0.1285: real time      0.0651
       DOS:  cpu time      0.0039: real time      0.0020
    CHARGE:  cpu time      1.5689: real time      0.4296
    MIXING:  cpu time      0.5839: real time      0.0834
    --------------------------------------------
      LOOP:  cpu time     22.7242: real time      6.0828

 eigenvalue-minimisations  :  4019
 total energy-change (2. order) : 0.3693584E+00  (-0.7882832E+00)
 number of electron     399.9999974 magnetization 
 augmentation part       -4.5077313 magnetization 

 Broyden mixing:
  rms(total) = 0.31519E+00    rms(broyden)= 0.31518E+00
  rms(prec ) = 0.44944E+00
  weight for this iteration     100.00

 eigenvalues of (default mixing * dielectric matrix)
  average eigenvalue GAMMA=   1.3032
  2.5267  1.0808  1.0808  0.5244

 Free energy of the ion-electron system (eV)
  ---------------------------------------------------
  alpha Z        PSCENC =       318.41319391
  Ewald energy   TEWEN  =     30862.42824000
  -Hartree energ DENC   =    -44464.09597991
  -exchange      EXHF   =         0.00000000
  -V(xc)+E(xc)   XCENC  =       322.24449108
  PAW double counting   =      5422.85875429    -4643.25652701
  entropy T*S    EENTRO =        -0.13175273
  eigenvalues    EBANDS =     -1909.23302743
  atomic energy  EATOM  =     13444.54662946
  Solvation  Ediel_sol  =         0.00000000
  ---------------------------------------------------
  free energy    TOTEN  =      -646.22597834 eV

  energy without entropy =     -646.09422561  energy(sigma->0) =     -646.16010197


--------------------------------------------------------------------------------------------------------




--------------------------------------- Iteration      1(  10)  ---------------------------------------


    POTLOK:  cpu time      9.3949: real time      1.5859
    SETDIJ:  cpu time      0.7343: real time      0.1049
    EDDIAG:  cpu time      3.2798: real time      0.6728
  RMM-DIIS:  cpu time      7.6452: real time      3.4077
    ORTHCH:  cpu time      0.1286: real time      0.0652
       DOS:  cpu time      0.0039: real time      0.0019
    CHARGE:  cpu time      1.5499: real time      0.4266
    MIXING:  cpu time      0.5981: real time      0.0854
    --------------------------------------------
      LOOP:  cpu time     23.3346: real time      6.3505

 eigenvalue-minimisations  :  4244
 total energy-change (2. order) : 0.5012639E+00  (-0.8093211E-01)
 number of electron     399.9999975 magnetization 
 augmentation part       -4.5483336 magnetization 

 Broyden mixing:
  rms(total) = 0.21556E+00    rms(broyden)= 0.21555E+00
  rms(prec ) = 0.29576E+00
  weight for this iteration     100.00

 eigenvalues of (default mixing * dielectric matrix)
  average eigenvalue GAMMA=   1.1294
  2.4946  1.0864  1.0864  0.5581  0.4217

 Free energy of the ion-electron system (eV)
  ---------------------------------------------------
  alpha Z        PSCENC =       318.41319391
  Ewald energy   TEWEN  =     30862.42824000
  -Hartree energ DENC   =    -44501.21349808
  -exchange      EXHF   =         0.00000000
  -V(xc)+E(xc)   XCENC  =       324.19090984
  PAW double counting   =      5470.20577528    -4690.81088535
  entropy T*S    EENTRO =        -0.12547409
  eigenvalues    EBANDS =     -1873.35960544
  atomic energy  EATOM  =     13444.54662946
  Solvation  Ediel_sol  =         0.00000000
  ---------------------------------------------------
  free energy    TOTEN  =      -645.72471447 eV

  energy without entropy =     -645.59924038  energy(sigma->0) =     -645.66197742


--------------------------------------------------------------------------------------------------------




--------------------------------------- Iteration      1(  11)  ---------------------------------------


    POTLOK:  cpu time      9.4102: real time      1.5911
    SETDIJ:  cpu time      0.6840: real time      0.0979
    EDDIAG:  cpu time      3.2089: real time      0.6540
  RMM-DIIS:  cpu time      8.6557: real time      3.9205
    ORTHCH:  cpu time      0.1287: real time      0.0652
       DOS:  cpu time      0.0040: real time      0.0020
    CHARGE:  cpu time      1.5418: real time      0.4255
    MIXING:  cpu time      0.6260: real time      0.0894
    --------------------------------------------
      LOOP:  cpu time     24.2594: real time      6.8458

 eigenvalue-minimisations  :  4921
 total energy-change (2. order) : 0.1211245E+00  (-0.4469434E-01)
 number of electron     399.9999975 magnetization 
 augmentation part       -4.5931599 magnetization 

 Broyden mixing:
  rms(total) = 0.13133E+00    rms(broyden)= 0.13133E+00
  rms(prec ) = 0.20076E+00
  weight for this iteration     100.00

 eigenvalues of (default mixing * dielectric matrix)
  average eigenvalue GAMMA=   1.1210
  2.3167  1.3139  1.3139  0.9360  0.5091  0.3362

 Free energy of the ion-electron system (eV)
  ---------------------------------------------------
  alpha Z        PSCENC =       318.41319391
  Ewald energy   TEWEN  =     30862.42824000
  -Hartree energ DENC   =    -44514.03726153
  -exchange      EXHF   =         0.00000000
  -V(xc)+E(xc)   XCENC  =       324.70057601
  PAW double counting   =      5480.62913029    -4701.23559238
  entropy T*S    EENTRO =        -0.12398652
  eigenvalues    EBANDS =     -1860.92451920
  atomic energy  EATOM  =     13444.54662946
  Solvation  Ediel_sol  =         0.00000000
  ---------------------------------------------------
  free energy    TOTEN  =      -645.60358996 eV

  energy without entropy =     -645.47960344  energy(sigma->0) =     -645.54159670


--------------------------------------------------------------------------------------------------------




--------------------------------------- Iteration      1(  12)  ---------------------------------------


    POTLOK:  cpu time      9.4171: real time      1.5920
    SETDIJ:  cpu time      0.6921: real time      0.0989
    EDDIAG:  cpu time      3.2001: real time      0.6553
  RMM-DIIS:  cpu time      8.9391: real time      4.0646
    ORTHCH:  cpu time      0.1285: real time      0.0651
       DOS:  cpu time      0.0042: real time      0.0021
    CHARGE:  cpu time      1.5636: real time      0.4283
    MIXING:  cpu time      0.6443: real time      0.0921
    --------------------------------------------
      LOOP:  cpu time     24.5891: real time      6.9983

 eigenvalue-minimisations  :  5132
 total energy-change (2. order) : 0.2821805E-01  (-0.1067178E+00)
 number of electron     399.9999975 magnetization 
 augmentation part       -4.7222546 magnetization 

 Broyden mixing:
  rms(total) = 0.10943E+00    rms(broyden)= 0.10942E+00
  rms(prec ) = 0.15586E+00
  weight for this iteration     100.00

 eigenvalues of (default mixing * dielectric matrix)
  average eigenvalue GAMMA=   1.1778
  2.1479  2.1479  1.1036  1.1036  0.8945  0.5163  0.3309

 Free energy of the ion-electron system (eV)
  ---------------------------------------------------
  alpha Z        PSCENC =       318.41319391
  Ewald energy   TEWEN  =     30862.42824000
  -Hartree energ DENC   =    -44540.41488759
  -exchange      EXHF   =         0.00000000
  -V(xc)+E(xc)   XCENC  =       325.47819546
  PAW double counting   =      5492.34750092    -4712.85733602
  entropy T*S    EENTRO =        -0.12234514
  eigenvalues    EBANDS =     -1835.39456292
  atomic energy  EATOM  =     13444.54662946
  Solvation  Ediel_sol  =         0.00000000
  ---------------------------------------------------
  free energy    TOTEN  =      -645.57537191 eV

  energy without entropy =     -645.45302677  energy(sigma->0) =     -645.51419934


--------------------------------------------------------------------------------------------------------




[...]
  219          phaser                                0.082522                          6   4
  220          rpro_isp                              1.064531                          6   4
  221            fftwav_mpi                            0.057813                     1500   5
  222              fftwav                                0.055735                   1500   6
  223                fft3d                                 0.042301                 1500   7
  224            rpromu_acc                            1.002004                      378   5
  225          m_sumb_d                              0.021638                          1   4
  226        fordep                                0.348258                            1   3
  227          setdij_                               0.348205                          6   4
  228        setdij_                               1.160171                           20   3
  229        set_dd_magatom                        0.000004                            1   3
  230        set_dd_paw                            0.032794                            1   3
  231          m_sumb_d                              0.007457                          7   4
  232        strkin                                0.022666                            1   3
  233          m_sumb_d                              0.001385                          1   4
  234        strelo                                0.022783                            1   3
  235        strnlr                                3.925085                            1   3
  236          rspher_all                            0.359772                          9   4
  237          phaser                                0.250815                         18   4
  238          rpro_isp                              3.214608                         18   4
  239            fftwav_mpi                            0.174968                     4500   5
  240              fftwav                                0.168717                   4500   6
  241                fft3d                                 0.128678                 4500   7
  242            rpromu_acc                            3.022556                     1134   5
  243          m_sumb_d                              0.062141                          9   4
  244        fft3d_mpi                             0.431922                           11   3
  245          fftbrc_mpi                            0.352010                         11   4
  246            fftbas_plan_mpi                       0.351997                       11   5
  247              dfftw_execute                         0.225224                     33   6
  248              map_forward                           0.056937                     10   6
  249                map_scatter                           0.033572                    5   7
  250              map_backward                          0.068523                     12   6
  251                map_gather                            0.045281                    6   7
  252        ggaall_grid                           0.249749                            1   3
  253        forhar                                0.506054                            2   3
  254        strehar                               0.011943                            1   3
  255        chggra                                0.034447                            1   3
  256          fft3d_mpi                             0.024386                          3   4
  257            fftbrc_mpi                            0.021366                        3   5
  258              fftbas_plan_mpi                       0.021362                      3   6
  259                map_forward                           0.000057                    4   7
  260                  map_scatter                           0.000007                  2   8
  261                map_backward                          0.000012                    2   7
  262                  map_gather                            0.000004                  1   8
  263          pothar                                0.001236                          1   4
  264        brmix                                 0.241779                            1   3
  265          brpre                                 0.001357                          1   4
  266          setg0                                 0.050688                          1   4
  267          broyd                                 0.135992                          1   4
  268            brget                                 0.012038                      154   5
  269            brsav                                 0.010590                       34   5
  270          m_bcast_z                             0.036898                          1   4
  271          m_bcast_d                             0.000163                          1   4
  272        m_bcast_d                             0.000029                            2   3
  273      potlok                                1.623167                              1   2
  274        fft3d_mpi                             0.482267                           13   3
  275          fftbrc_mpi                            0.391555                         13   4
  276            fftbas_plan_mpi                       0.391534                       13   5
  277              dfftw_execute                         0.251401                     39   6
  278              map_forward                           0.070099                     14   6
  279                map_scatter                           0.041843                    7   7
  280              map_backward                          0.068320                     12   6
  281                map_gather                            0.045109                    6   7
  282        ggaall_grid                           0.253545                            1   3
  283        pothar                                0.041299                            1   3
  284      potlok_metagga                        0.000000                              1   2
  285      set_dd_magatom                        0.000005                              1   2
  286      set_dd_paw                            0.025484                              1   2
  287        m_sumb_d                              0.000150                            7   3
  288      densta                                0.002222                              1   2
  289        m_sumb_d                              0.000350                           39   3
 
 Flat profile
 ============
 
             routine name                   CPU           calls
 ---------------------------------------------------------------
 i2                                     39.141315       10520
 hamiltmu                               27.896156       11657
 eddav                                  26.559163           5
 potlok                                 25.726691          31
 eddiag                                 17.511989          29
 total_time                             14.578449           1
 newband                                11.893423       11725
 rpromu_acc                             11.739657       12975
 i3                                     11.649093       10520
 m_sumb_d                               10.845335        1789
 dfftw_execute                           8.579442        1425
 ggaall_grid                             7.869312          32
 fft3d                                   4.820292      169607
 racc0mu_acc                             3.574988       11657
 setdij_                                 3.376498          58
 fft3d_mpi                               3.277561       65532
 orth1                                   3.232268        3703
 raccmu_                                 3.193845       11657
 cnorma                                  2.621952      167787
 augmentation_charge                     2.502419          30
 w1_gemv                                 2.493716      299792
 eccp                                    1.742729       72929
 choleski                                1.716036          60
 map_gather                              1.681911         253
 w1_copy                                 1.389285      151513
 phaser                                  1.373640          94
 w1_dscal                                1.341283      123018
 map_scatter                             1.312963         225
 pothar                                  1.289299          32
 broyd                                   1.254664          30
 lapack                                  1.113889        1137
 w1_gaxpy                                1.107198      111231
 setg0                                   1.078589          31
 map_forward                             0.908072         450
 overl_mu                                0.891246       11657
 map_backward                            0.868092         506
 fftwav                                  0.851631      104553
 set_dd_paw                              0.809865          32
 m_bcast_z                               0.791090          67
 w1_daxpy                                0.723750       83300
 w1_dot                                  0.716140       14428
 overl1                                  0.622772       74948
 lincom                                  0.558151         128
 force_and_stress                        0.534722           1
 rspher_all                              0.524733          14
 apply_precond                           0.517184      132301
 forhar                                  0.506054           2
 elmin                                   0.471124           1
 brmix                                   0.409929          30
 stufak                                  0.380469           1
 forloc                                  0.339136           1
 vhamil                                  0.304252       65054
 orthch                                  0.303448          30
 kinhamil                                0.303084       65054
 init_hip                                0.300666           1
 fftext_mpi                              0.288503       65054
 eccp_nl                                 0.276577      111858
 zhegv                                   0.255359       27222
 set_charge                              0.247936          30
 eddrmm                                  0.214551          29
 brget                                   0.192054        2439
 depsum                                  0.160396          30
 fftwav_mpi                              0.159505      104553
 brsav                                   0.153625         590
 soft_charge                             0.152090          30
 setup_precond                           0.133789       17000
 overl                                   0.113397       15282
 fftbas_plan_mpi                         0.099329         478
 proall                                  0.073097           1
 ggemm                                   0.063780        1457
 densta                                  0.059763          35
 pw_charge                               0.042862       12388
 brpre                                   0.041106          30
 strnlr                                  0.037748           1
 rpro_isp                                0.023316          26
 strelo                                  0.022783           1
 i1                                      0.021666       10520
 strkin                                  0.021281           1
 hip_hipfft_makeplan                     0.017803           6
 hamilt_local                            0.013514       14500
 fft_gq                                  0.013430          30
 brgrid                                  0.012907           1
 fornlr                                  0.012429           1
 strehar                                 0.011943           1
 m_bcast_d                               0.011846          36
 w1_projall                              0.009861       11337
 truncate_high_frequency_w1              0.009644       67554
 chggra                                  0.008825           1
 rsp                                     0.008283           1
 fewald                                  0.001521           1
 fftbrc_mpi                              0.000687         478
 rcp                                     0.000570           1
 hip_init_hipblas                        0.000387           1
 vectorpot                               0.000160          31
 set_dd_magatom                          0.000142          32
 hip_init_rocsolver                      0.000069           1
 fordep                                  0.000053           1
 crpa_reader                             0.000051           1
 shift_bands_between_low_high            0.000036          58
 potlok_metagga                          0.000023          31
 hip_hipfft_makeplans                    0.000008           3
 rotate_active_occupied_orbital          0.000006           1
 redis_pw_over_bands                     0.000000           1
 ---------------------------------------------------------------
  summed up times    275.109372854233     
 
 Accumulative profile
 ====================
 
             routine name                   CPU           calls
 ---------------------------------------------------------------
 total_time                            275.109373           1
 elmin                                 244.329290           1
 eddrmm                                118.506464          29
 potlok                                 49.414480          31
 i2                                     47.342552       10520
 hamiltmu                               37.667488       11657
 eddav                                  37.340921           5
 eddiag                                 19.122439          29
 fft3d_mpi                              18.488793       65532
 i3                                     17.723243       10520
 fftbrc_mpi                             13.450496         478
 fftbas_plan_mpi                        13.449809         478
 newband                                13.242438       11725
 set_charge                             12.744593          30
 rpromu_acc                             11.739657       12975
 m_sumb_d                               10.845335        1789
 force_and_stress                        9.586287           1
 soft_charge                             8.600616          30
 dfftw_execute                           8.579442        1425
 ggaall_grid                             7.869312          32
 raccmu_                                 7.660080       11657
 w1_projall                              7.373045       11337
 orthch                                  5.132802          30
 rpro_isp                                4.860227          26
 fft3d                                   4.820292      169607
 fftwav_mpi                              4.070692      104553
 brmix                                   3.931009          30
 strnlr                                  3.925085           1
 fftwav                                  3.911187      104553
 augmentation_charge                     3.682344          30
 racc0mu_acc                             3.574988       11657
 setdij_                                 3.376498          58
 orth1                                   3.232268        3703
 w1_gemv                                 3.116488      299792
 cnorma                                  2.898529      167787
 map_backward                            2.550003         506
 kinhamil                                2.387713       65054
 map_forward                             2.221035         450
 fftext_mpi                              2.084629       65054
 eccp                                    1.742729       72929
 choleski                                1.716036          60
 map_gather                              1.681911         253
 broyd                                   1.600343          30
 set_dd_paw                              1.450156          32
 w1_copy                                 1.389285      151513
 phaser                                  1.373640          94
 w1_dscal                                1.341283      123018
 map_scatter                             1.312963         225
 fornlr                                  1.302099           1
 pothar                                  1.289299          32
 lapack                                  1.113889        1137
 w1_gaxpy                                1.107198      111231
 setg0                                   1.078589          31
 overl_mu                                0.891246       11657
 m_bcast_z                               0.791090          67
 w1_daxpy                                0.723750       83300
 w1_dot                                  0.716140       14428
 proall                                  0.683782           1
 overl1                                  0.622772       74948
 hamilt_local                            0.594227       14500
 lincom                                  0.558151         128
 rspher_all                              0.524733          14
 apply_precond                           0.517184      132301
 forhar                                  0.506054           2
 stufak                                  0.380469           1
 i1                                      0.361133       10520
 fordep                                  0.348258           1
 forloc                                  0.339136           1
 vhamil                                  0.304252       65054
 init_hip                                0.300666           1
 eccp_nl                                 0.276577      111858
 zhegv                                   0.255359       27222
 fft_gq                                  0.245783          30
 depsum                                  0.213697          30
 brget                                   0.192054        2439
 brsav                                   0.153625         590
 setup_precond                           0.133789       17000
 overl                                   0.113397       15282
 densta                                  0.064044          35
 ggemm                                   0.063780        1457
 pw_charge                               0.042862       12388
 brpre                                   0.041106          30
 chggra                                  0.034447           1
 strelo                                  0.022783           1
 strkin                                  0.022666           1
 hip_hipfft_makeplans                    0.017811           3
 hip_hipfft_makeplan                     0.017803           6
 brgrid                                  0.012907           1
 strehar                                 0.011943           1
 m_bcast_d                               0.011846          36
 fewald                                  0.010592           1
 truncate_high_frequency_w1              0.009644       67554
 rsp                                     0.008283           1
 rcp                                     0.000570           1
 hip_init_hipblas                        0.000387           1
 vectorpot                               0.000160          31
 set_dd_magatom                          0.000142          32
 hip_init_rocsolver                      0.000069           1
 crpa_reader                             0.000051           1
 shift_bands_between_low_high            0.000036          58
 potlok_metagga                          0.000023          31
 rotate_active_occupied_orbital          0.000006           1
 redis_pw_over_bands                     0.000000           1
 ---------------------------------------------------------------
 
Profiling took   0.409526  0.241574  0.002841  0.002698 seconds
Profiling took   0.301718 seconds
