<?xml version="1.0" encoding="ISO-8859-1"?>
<modeling>
 <generator>
  <i name="program" type="string">vasp </i>
  <i name="version" type="string">6.3.2  </i>
  <i name="subversion" type="string">27Jun22 (build Mar 15 2023 15:45:48) complex                          parallel </i>
  <i name="platform" type="string">LinuxIFC </i>
  <i name="date" type="string">2024 07 23 </i>
  <i name="time" type="string">08:51:13 </i>
 </generator>
 <incar>
  <i type="string" name="SYSTEM">ni3al</i>
  <i type="int" name="ISTART">     0</i>
  <i type="string" name="PREC">Accurate</i>
  <i type="string" name="ALGO">Fast</i>
  <i name="AMIN">      0.01000000</i>
  <i type="int" name="ICHARG">     2</i>
  <i type="int" name="NELM">   150</i>
  <i type="int" name="IBRION">     1</i>
  <i name="EDIFF">      0.00000100</i>
  <i name="EDIFFG">     -0.01000000</i>
  <i type="int" name="NSW">     0</i>
  <i type="int" name="ISIF">     2</i>
  <i type="int" name="ISYM">     0</i>
  <i name="ENCUT">    530.00000000</i>
  <i type="string" name="LREAL">Auto</i>
  <i type="int" name="ISMEAR">     0</i>
  <i name="SIGMA">      0.10000000</i>
  <i type="int" name="LMAXMIX">     4</i>
  <i type="logical" name="LWAVE"> T  </i>
  <i type="logical" name="LCHARG"> F  </i>
 </incar>
 <primitive_cell>
  <structure name="primitive_cell" >
   <crystal>
    <varray name="basis" >
     <v>       9.28425000       0.00000000       0.00000000 </v>
     <v>       0.00000000      10.72053000       0.00000000 </v>
     <v>       0.00000000       0.00000000      19.49580000 </v>
    </varray>
    <i name="volume">   1940.45753799 </i>
    <varray name="rec_basis" >
     <v>       0.10770929       0.00000000       0.00000000 </v>
     <v>       0.00000000       0.09327897       0.00000000 </v>
     <v>       0.00000000       0.00000000       0.05129310 </v>
    </varray>
   </crystal>
   <varray name="positions" >
    <v>       0.00000000       0.00000000       0.00000000 </v>
    <v>       0.16666700       0.25000000       0.00000000 </v>
    <v>       0.00000000       0.00000000       0.38944500 </v>
    <v>       0.16666700       0.25000000       0.38944500 </v>
    <v>       0.00000000       0.16666600       0.13018000 </v>
    <v>       0.16666700       0.41666600       0.13018000 </v>
    <v>       0.00000000       0.33333400       0.25985200 </v>
    <v>       0.16666700       0.08333300       0.25985200 </v>
    <v>       0.33333300       0.00000000       0.00000000 </v>
    <v>       0.50000000       0.25000000       0.00000000 </v>
    <v>       0.33333300       0.00000000       0.38944500 </v>
    <v>       0.50000000       0.25000000       0.38944500 </v>
    <v>       0.33333300       0.16666600       0.13018000 </v>
    <v>       0.50000000       0.41666600       0.13018000 </v>
    <v>       0.33333300       0.33333400       0.25985200 </v>
    <v>       0.50000000       0.08333300       0.25985200 </v>
    <v>       0.66666700       0.00000000       0.00000000 </v>
    <v>       0.83333300       0.25000000       0.00000000 </v>
    <v>       0.66666700       0.00000000       0.38944500 </v>
    <v>       0.83333300       0.25000000       0.38944500 </v>
    <v>       0.66666700       0.16666600       0.13018000 </v>
    <v>       0.83333300       0.41666600       0.13018000 </v>
    <v>       0.66666700       0.33333400       0.25985200 </v>
    <v>       0.83333300       0.08333400       0.25985200 </v>
    <v>       0.00000000       0.50000000       0.00000000 </v>
    <v>       0.16666700       0.75000000       0.00000000 </v>
    <v>       0.00000000       0.50000000       0.38944500 </v>
    <v>       0.16666700       0.75000000       0.38944500 </v>
    <v>       0.00000000       0.66666600       0.13018000 </v>
    <v>       0.16666700       0.91666600       0.13018000 </v>
    <v>       0.00000000       0.83333400       0.25985200 </v>
    <v>       0.16666700       0.58333400       0.25985200 </v>
    <v>       0.33333300       0.50000000       0.00000000 </v>
    <v>       0.50000000       0.75000000       0.00000000 </v>
    <v>       0.33333300       0.50000000       0.38944500 </v>
    <v>       0.50000000       0.75000000       0.38944500 </v>
    <v>       0.33333300       0.66666600       0.13018000 </v>
    <v>       0.50000000       0.91666700       0.13018000 </v>
    <v>       0.33333300       0.83333400       0.25985200 </v>
    <v>       0.50000000       0.58333400       0.25985200 </v>
    <v>       0.66666700       0.50000000       0.00000000 </v>
    <v>       0.83333300       0.75000000       0.00000000 </v>
    <v>       0.66666700       0.50000000       0.38944500 </v>
    <v>       0.83333300       0.75000000       0.38944500 </v>
    <v>       0.66666700       0.66666600       0.13018000 </v>
    <v>       0.83333300       0.91666700       0.13018000 </v>
    <v>       0.66666700       0.83333400       0.25985200 </v>
    <v>       0.83333300       0.58333400       0.25985200 </v>
    <v>       0.17052245       0.73465524       0.55027669 </v>
    <v>       0.00000000       0.00000000       0.09762400 </v>
    <v>       0.16666700       0.25000000       0.09762400 </v>
    <v>       0.97511793       0.98901429       0.48648783 </v>
    <v>       0.16260250       0.25484113       0.48613971 </v>
    <v>       0.00000000       0.16666600       0.22753200 </v>
    <v>       0.16666700       0.41666600       0.22753200 </v>
    <v>       0.00000000       0.33333400       0.35720700 </v>
    <v>       0.16666700       0.08333300       0.35720700 </v>
    <v>       0.33333300       0.00000000       0.09762400 </v>
    <v>       0.50000000       0.25000000       0.09762400 </v>
    <v>       0.35435983       0.99192883       0.48616795 </v>
    <v>       0.49111730       0.25150766       0.48687946 </v>
    <v>       0.33333300       0.16666600       0.22753200 </v>
    <v>       0.50000000       0.41666600       0.22753200 </v>
    <v>       0.33333300       0.33333400       0.35720700 </v>
    <v>       0.50000000       0.08333300       0.35720700 </v>
    <v>       0.66666700       0.00000000       0.09762400 </v>
    <v>       0.83333300       0.25000000       0.09762400 </v>
    <v>       0.66818743       0.98573714       0.48641147 </v>
    <v>       0.84164505       0.25722048       0.48691708 </v>
    <v>       0.66666700       0.16666600       0.22753200 </v>
    <v>       0.83333300       0.41666600       0.22753200 </v>
    <v>       0.66666700       0.33333400       0.35720700 </v>
    <v>       0.83333300       0.08333400       0.35720700 </v>
    <v>       0.00000000       0.50000000       0.09762400 </v>
    <v>       0.16666700       0.75000000       0.09762400 </v>
    <v>       0.99139481       0.47520039       0.48627740 </v>
    <v>       0.16476634       0.82715715       0.48214301 </v>
    <v>       0.00000000       0.66666600       0.22753200 </v>
    <v>       0.16666700       0.91666600       0.22753200 </v>
    <v>       0.00000000       0.83333400       0.35720700 </v>
    <v>       0.16666700       0.58333400       0.35720700 </v>
    <v>       0.33333300       0.50000000       0.09762400 </v>
    <v>       0.50000000       0.75000000       0.09762400 </v>
    <v>       0.33215624       0.46886243       0.48699765 </v>
    <v>       0.52308381       0.76549790       0.48678018 </v>
    <v>       0.33333300       0.66666600       0.22753200 </v>
    <v>       0.50000000       0.91666700       0.22753200 </v>
    <v>       0.33333300       0.83333400       0.35720700 </v>
    <v>       0.50000000       0.58333400       0.35720700 </v>
    <v>       0.66666700       0.50000000       0.09762400 </v>
    <v>       0.83333300       0.75000000       0.09762400 </v>
    <v>       0.68022716       0.50226767       0.48692617 </v>
    <v>       0.81239903       0.75787088       0.48609823 </v>
    <v>       0.66666700       0.66666600       0.22753200 </v>
    <v>       0.83333300       0.91666700       0.22753200 </v>
    <v>       0.66666700       0.83333400       0.35720700 </v>
    <v>       0.83333300       0.58333400       0.35720700 </v>
    <v>       0.36277300       0.64242376       0.63823878 </v>
   </varray>
  </structure>
  <varray name="primitive_index" >
   <v type="int" >        1 </v>
   <v type="int" >        2 </v>
   <v type="int" >        3 </v>
   <v type="int" >        4 </v>
   <v type="int" >        5 </v>
   <v type="int" >        6 </v>
   <v type="int" >        7 </v>
   <v type="int" >        8 </v>
   <v type="int" >        9 </v>
   <v type="int" >       10 </v>
   <v type="int" >       11 </v>
   <v type="int" >       12 </v>
   <v type="int" >       13 </v>
   <v type="int" >       14 </v>
   <v type="int" >       15 </v>
   <v type="int" >       16 </v>
   <v type="int" >       17 </v>
   <v type="int" >       18 </v>
   <v type="int" >       19 </v>
   <v type="int" >       20 </v>
   <v type="int" >       21 </v>
   <v type="int" >       22 </v>
   <v type="int" >       23 </v>
   <v type="int" >       24 </v>
   <v type="int" >       25 </v>
   <v type="int" >       26 </v>
   <v type="int" >       27 </v>
   <v type="int" >       28 </v>
   <v type="int" >       29 </v>
   <v type="int" >       30 </v>
   <v type="int" >       31 </v>
   <v type="int" >       32 </v>
   <v type="int" >       33 </v>
   <v type="int" >       34 </v>
   <v type="int" >       35 </v>
   <v type="int" >       36 </v>
   <v type="int" >       37 </v>
   <v type="int" >       38 </v>
   <v type="int" >       39 </v>
   <v type="int" >       40 </v>
   <v type="int" >       41 </v>
   <v type="int" >       42 </v>
   <v type="int" >       43 </v>
   <v type="int" >       44 </v>
   <v type="int" >       45 </v>
   <v type="int" >       46 </v>
   <v type="int" >       47 </v>
   <v type="int" >       48 </v>
   <v type="int" >       49 </v>
   <v type="int" >       50 </v>
   <v type="int" >       51 </v>
   <v type="int" >       52 </v>
   <v type="int" >       53 </v>
   <v type="int" >       54 </v>
   <v type="int" >       55 </v>
   <v type="int" >       56 </v>
   <v type="int" >       57 </v>
   <v type="int" >       58 </v>
   <v type="int" >       59 </v>
   <v type="int" >       60 </v>
   <v type="int" >       61 </v>
   <v type="int" >       62 </v>
   <v type="int" >       63 </v>
   <v type="int" >       64 </v>
   <v type="int" >       65 </v>
   <v type="int" >       66 </v>
   <v type="int" >       67 </v>
   <v type="int" >       68 </v>
   <v type="int" >       69 </v>
   <v type="int" >       70 </v>
   <v type="int" >       71 </v>
   <v type="int" >       72 </v>
   <v type="int" >       73 </v>
   <v type="int" >       74 </v>
   <v type="int" >       75 </v>
   <v type="int" >       76 </v>
   <v type="int" >       77 </v>
   <v type="int" >       78 </v>
   <v type="int" >       79 </v>
   <v type="int" >       80 </v>
   <v type="int" >       81 </v>
   <v type="int" >       82 </v>
   <v type="int" >       83 </v>
   <v type="int" >       84 </v>
   <v type="int" >       85 </v>
   <v type="int" >       86 </v>
   <v type="int" >       87 </v>
   <v type="int" >       88 </v>
   <v type="int" >       89 </v>
   <v type="int" >       90 </v>
   <v type="int" >       91 </v>
   <v type="int" >       92 </v>
   <v type="int" >       93 </v>
   <v type="int" >       94 </v>
   <v type="int" >       95 </v>
   <v type="int" >       96 </v>
   <v type="int" >       97 </v>
   <v type="int" >       98 </v>
  </varray>
 </primitive_cell>
 <kpoints>
  <generation param="Gamma">
   <v type="int" name="divisions">       4        3        1 </v>
   <v name="usershift">      0.00000000       0.00000000       0.00000000 </v>
   <v name="genvec1">      0.25000000       0.00000000       0.00000000 </v>
   <v name="genvec2">      0.00000000       0.33333333       0.00000000 </v>
   <v name="genvec3">      0.00000000       0.00000000       1.00000000 </v>
   <v name="shift">      0.00000000       0.00000000       0.00000000 </v>
  </generation>
  <varray name="kpointlist" >
   <v>       0.00000000       0.00000000       0.00000000 </v>
   <v>       0.25000000       0.00000000       0.00000000 </v>
   <v>       0.50000000       0.00000000       0.00000000 </v>
   <v>       0.00000000       0.33333333       0.00000000 </v>
   <v>       0.25000000       0.33333333       0.00000000 </v>
   <v>       0.25000000      -0.33333333       0.00000000 </v>
   <v>       0.50000000       0.33333333       0.00000000 </v>
  </varray>
  <varray name="weights" >
   <v>       0.08333333 </v>
   <v>       0.16666667 </v>
   <v>       0.08333333 </v>
   <v>       0.16666667 </v>
   <v>       0.16666667 </v>
   <v>       0.16666667 </v>
   <v>       0.16666667 </v>
  </varray>
 </kpoints>
 <parameters>
  <separator name="general" >
   <i type="string" name="SYSTEM">ni3al</i>
   <i type="logical" name="LCOMPAT"> F  </i>
  </separator>
  <separator name="electronic" >
   <i type="string" name="PREC">accura</i>
   <i name="ENMAX">    530.00000000</i>
   <i name="ENAUG">    644.87300000</i>
   <i name="EDIFF">      0.00000100</i>
   <i type="int" name="IALGO">    68</i>
   <i type="int" name="IWAVPR">    10</i>
   <i type="int" name="NBANDS">   250</i>
   <i type="int" name="NBANDSLOW">    -1</i>
   <i type="int" name="NBANDSHIGH">    -1</i>
   <i name="NELECT">    400.00000000</i>
   <i type="int" name="TURBO">     0</i>
   <i type="int" name="IRESTART">     0</i>
   <i type="int" name="NREBOOT">     0</i>
   <i type="int" name="NMIN">     0</i>
   <i name="EREF">      0.00000000</i>
   <separator name="electronic smearing" >
    <i type="int" name="ISMEAR">     0</i>
    <i name="SIGMA">      0.10000000</i>
    <i name="KSPACING">      0.50000000</i>
    <i type="logical" name="KGAMMA"> T  </i>
    <i type="logical" name="KBLOWUP"> T  </i>
   </separator>
   <separator name="electronic projectors" >
    <i type="logical" name="LREAL"> T  </i>
    <v name="ROPT">     -0.00025000     -0.00025000     -0.00025000     -0.00025000</v>
    <i type="int" name="LMAXPAW">  -100</i>
    <i type="int" name="LMAXMIX">     4</i>
    <i type="logical" name="NLSPLINE"> F  </i>
   </separator>
   <separator name="electronic startup" >
    <i type="int" name="ISTART">     0</i>
    <i type="int" name="ICHARG">     2</i>
    <i type="int" name="INIWAV">     1</i>
   </separator>
   <separator name="electronic spin" >
    <i type="int" name="ISPIN">     1</i>
    <i type="logical" name="LNONCOLLINEAR"> F  </i>
    <v name="MAGMOM">      1.00000000      1.00000000      1.00000000      1.00000000      1.00000000      1.00000000      1.00000000      1.00000000      1.00000000      1.00000000      1.00000000      1.00000000      1.00000000      1.00000000      1.00000000      1.00000000      1.00000000      1.00000000      1.00000000      1.00000000
      1.00000000      1.00000000      1.00000000      1.00000000      1.00000000      1.00000000      1.00000000      1.00000000      1.00000000      1.00000000      1.00000000      1.00000000      1.00000000      1.00000000      1.00000000      1.00000000      1.00000000      1.00000000      1.00000000      1.00000000
      1.00000000      1.00000000      1.00000000      1.00000000      1.00000000      1.00000000      1.00000000      1.00000000      1.00000000      1.00000000      1.00000000      1.00000000      1.00000000      1.00000000      1.00000000      1.00000000      1.00000000      1.00000000      1.00000000      1.00000000
      1.00000000      1.00000000      1.00000000      1.00000000      1.00000000      1.00000000      1.00000000      1.00000000      1.00000000      1.00000000      1.00000000      1.00000000      1.00000000      1.00000000      1.00000000      1.00000000      1.00000000      1.00000000      1.00000000      1.00000000
      1.00000000      1.00000000      1.00000000      1.00000000      1.00000000      1.00000000      1.00000000      1.00000000      1.00000000      1.00000000      1.00000000      1.00000000      1.00000000      1.00000000      1.00000000      1.00000000      1.00000000      1.00000000</v>
    <i name="NUPDOWN">     -1.00000000</i>
    <i type="logical" name="LSORBIT"> F  </i>
    <v name="SAXIS">      0.00000000      0.00000000      1.00000000</v>
    <i type="logical" name="LSPIRAL"> F  </i>
    <v name="QSPIRAL">      0.00000000      0.00000000      0.00000000</v>
    <i type="logical" name="LZEROZ"> F  </i>
   </separator>
   <separator name="electronic exchange-correlation" >
    <i type="logical" name="LASPH"> F  </i>
    <i type="logical" name="LMETAGGA"> F  </i>
   </separator>
   <separator name="electronic convergence" >
    <i type="int" name="NELM">   150</i>
    <i type="int" name="NELMDL">    -5</i>
    <i type="int" name="NELMIN">     2</i>
    <i name="ENINI">    530.00000000</i>
    <separator name="electronic convergence detail" >
     <i type="logical" name="LDIAG"> T  </i>
     <i type="logical" name="LSUBROT"> F  </i>
     <i name="WEIMIN">      0.00000000</i>
     <i name="EBREAK">      0.00000000</i>
     <i name="DEPER">      0.30000000</i>
     <i type="int" name="NRMM">     4</i>
     <i name="TIME">      0.40000000</i>
    </separator>
   </separator>
   <separator name="electronic mixer" >
    <i name="AMIX">      0.40000000</i>
    <i name="BMIX">      1.00000000</i>
    <i name="AMIN">      0.01000000</i>
    <i name="AMIX_MAG">      1.60000000</i>
    <i name="BMIX_MAG">      1.00000000</i>
    <separator name="electronic mixer details" >
     <i type="int" name="IMIX">     4</i>
     <i type="logical" name="MIXFIRST"> F  </i>
     <i type="int" name="MAXMIX">   -45</i>
     <i name="WC">    100.00000000</i>
     <i type="int" name="INIMIX">     1</i>
     <i type="int" name="MIXPRE">     1</i>
     <i type="int" name="MREMOVE">     5</i>
    </separator>
   </separator>
   <separator name="electronic dipolcorrection" >
    <i type="logical" name="LDIPOL"> F  </i>
    <i type="logical" name="LMONO"> F  </i>
    <i type="int" name="IDIPOL">     0</i>
    <i name="EPSILON">      1.00000000</i>
    <v name="DIPOL">   -100.00000000   -100.00000000   -100.00000000</v>
    <i name="EFIELD">      0.00000000</i>
   </separator>
  </separator>
  <separator name="grids" >
   <i type="int" name="NGX">    70</i>
   <i type="int" name="NGY">    80</i>
   <i type="int" name="NGZ">   150</i>
   <i type="int" name="NGXF">   140</i>
   <i type="int" name="NGYF">   160</i>
   <i type="int" name="NGZF">   300</i>
   <i type="logical" name="ADDGRID"> F  </i>
  </separator>
  <separator name="ionic" >
   <i type="int" name="NSW">     0</i>
   <i type="int" name="IBRION">    -1</i>
   <i type="int" name="MDALGO">     0</i>
   <i type="int" name="ISIF">     2</i>
   <i name="PSTRESS">      0.00000000</i>
   <i name="EDIFFG">     -0.01000000</i>
   <i type="int" name="NFREE">     0</i>
   <i name="POTIM">      0.50000000</i>
   <i name="SMASS">     -3.00000000</i>
   <i name="SCALEE">      1.00000000</i>
  </separator>
  <separator name="ionic md" >
   <i name="TEBEG">      0.00010000</i>
   <i name="TEEND">      0.00010000</i>
   <i type="int" name="NBLOCK">     1</i>
   <i type="int" name="KBLOCK">     1</i>
   <i type="int" name="NPACO">   256</i>
   <i name="APACO">     10.00000000</i>
  </separator>
  <separator name="symmetry" >
   <i type="int" name="ISYM">     0</i>
   <i name="SYMPREC">      0.00001000</i>
  </separator>
  <separator name="dos" >
   <i type="int" name="LORBIT">     0</i>
   <v name="RWIGS">     -1.00000000     -1.00000000     -1.00000000     -1.00000000</v>
   <i type="int" name="NEDOS">   301</i>
   <i name="EMIN">     10.00000000</i>
   <i name="EMAX">    -10.00000000</i>
   <i name="EFERMI">      0.00000000</i>
  </separator>
  <separator name="writing" >
   <i type="int" name="NWRITE">     2</i>
   <i type="logical" name="LWAVE"> T  </i>
   <i type="logical" name="LDOWNSAMPLE"> F  </i>
   <i type="logical" name="LCHARG"> F  </i>
   <i type="logical" name="LPARD"> F  </i>
   <i type="logical" name="LVTOT"> F  </i>
   <i type="logical" name="LVHAR"> F  </i>
   <i type="logical" name="LELF"> F  </i>
   <i type="logical" name="LOPTICS"> F  </i>
   <v name="STM">      0.00000000      0.00000000      0.00000000      0.00000000      0.00000000      0.00000000      0.00000000</v>
  </separator>
  <separator name="performance" >
   <i type="int" name="NPAR">     1</i>
   <i type="int" name="NSIM">     4</i>
   <i type="int" name="NBLK">    -1</i>
   <i type="logical" name="LPLANE"> T  </i>
   <i type="logical" name="LSCALAPACK"> T  </i>
   <i type="logical" name="LSCAAWARE"> F  </i>
   <i type="logical" name="LSCALU"> F  </i>
   <i type="logical" name="LASYNC"> F  </i>
   <i type="logical" name="LORBITALREAL"> F  </i>
  </separator>
  <separator name="miscellaneous" >
   <i type="int" name="IDIOT">     3</i>
   <i type="int" name="PHON_NSTRUCT">    -1</i>
   <i type="logical" name="LMUSIC"> F  </i>
   <v name="POMASS">     12.01100000     18.99800000     28.08500000     39.09800000</v>
   <v name="DARWINR">      0.00000000      0.00000000      0.00000000      0.00000000</v>
   <v name="DARWINV">      1.00000000      1.00000000      1.00000000      1.00000000</v>
   <i type="logical" name="LCORR"> T  </i>
  </separator>
  <i type="logical" name="GGA_COMPAT"> T  </i>
  <i type="logical" name="LBERRY"> F  </i>
  <i type="int" name="ICORELEVEL">     0</i>
  <i type="logical" name="LDAU"> F  </i>
  <i type="int" name="I_CONSTRAINED_M">     0</i>
  <separator name="electronic exchange-correlation" >
   <i type="string" name="GGA">--</i>
   <i type="int" name="VOSKOWN">     0</i>
   <i type="logical" name="LHFCALC"> F  </i>
   <i type="string" name="PRECFOCK"></i>
   <i type="logical" name="LSYMGRAD"> F  </i>
   <i type="logical" name="LHFONE"> F  </i>
   <i type="logical" name="LRHFCALC"> F  </i>
   <i type="logical" name="LTHOMAS"> F  </i>
   <i type="logical" name="LMODELHF"> F  </i>
   <i type="logical" name="LFOCKACE"> F  </i>
   <i name="ENCUT4O">     -1.00000000</i>
   <i type="int" name="EXXOEP">     0</i>
   <i type="int" name="FOURORBIT">     0</i>
   <i name="AEXX">      0.00000000</i>
   <i name="HFALPHA">      0.00000000</i>
   <i name="MCALPHA">      0.00000000</i>
   <i name="ALDAX">      1.00000000</i>
   <i name="AGGAX">      1.00000000</i>
   <i name="ALDAC">      1.00000000</i>
   <i name="AGGAC">      1.00000000</i>
   <i type="int" name="NKREDX">     1</i>
   <i type="int" name="NKREDY">     1</i>
   <i type="int" name="NKREDZ">     1</i>
   <i type="logical" name="SHIFTRED"> F  </i>
   <i type="logical" name="ODDONLY"> F  </i>
   <i type="logical" name="EVENONLY"> F  </i>
   <i type="int" name="LMAXFOCK">     0</i>
   <i type="int" name="NMAXFOCKAE">     0</i>
   <i type="logical" name="LFOCKAEDFT"> F  </i>
   <i name="HFSCREEN">      0.00000000</i>
   <i name="HFSCREENC">      0.00000000</i>
   <i type="int" name="NBANDSGWLOW">     0</i>
  </separator>
  <separator name="vdW DFT" >
   <i type="logical" name="LUSE_VDW"> F  </i>
   <i name="Zab_VDW">     -0.84910000</i>
   <i name="PARAM1">      0.12340000</i>
   <i name="PARAM2">      1.00000000</i>
   <i name="PARAM3">      0.00000000</i>
  </separator>
  <separator name="model GW" >
   <i type="int" name="MODEL_GW">     0</i>
   <i name="MODEL_EPS0">     11.88035227</i>
   <i name="MODEL_ALPHA">      1.00000000</i>
  </separator>
  <separator name="linear response parameters" >
   <i type="logical" name="LEPSILON"> F  </i>
   <i type="logical" name="LRPA"> F  </i>
   <i type="logical" name="LNABLA"> F  </i>
   <i type="logical" name="LVEL"> F  </i>
   <i name="CSHIFT">      0.10000000</i>
   <i name="OMEGAMAX">     -1.00000000</i>
   <i name="DEG_THRESHOLD">      0.00200000</i>
   <i name="RTIME">     -0.10000000</i>
   <i name="WPLASMAI">      0.00000000</i>
   <v name="DFIELD">      0.00000000      0.00000000      0.00000000</v>
   <v name="WPLASMA">      0.00000000      0.00000000      0.00000000      0.00000000      0.00000000      0.00000000      0.00000000      0.00000000      0.00000000</v>
  </separator>
  <separator name="orbital magnetization" >
   <i type="logical" name="NUCIND"> F  </i>
   <v name="MAGPOS">      0.00000000      0.00000000      0.00000000</v>
   <i type="logical" name="LNICSALL"> T  </i>
   <i type="logical" name="ORBITALMAG"> F  </i>
   <i type="logical" name="LMAGBLOCH"> F  </i>
   <i type="logical" name="LCHIMAG"> F  </i>
   <i type="logical" name="LGAUGE"> T  </i>
   <i type="int" name="MAGATOM">     0</i>
   <v name="MAGDIPOL">      0.00000000      0.00000000      0.00000000</v>
   <v name="AVECCONST">      0.00000000      0.00000000      0.00000000</v>
  </separator>
  <separator name="response functions" >
   <i type="logical" name="LFINITE_TEMPERATURE"> F  </i>
   <i type="logical" name="LADDER"> F  </i>
   <i type="logical" name="LRPAFORCE"> F  </i>
   <i type="logical" name="LFXC"> F  </i>
   <i type="logical" name="LHARTREE"> T  </i>
   <i type="int" name="IBSE">     0</i>
   <v type="int" name="KPOINT">    -1     0     0     0</v>
   <i type="logical" name="LTCTC"> F  </i>
   <i type="logical" name="LTCTE"> F  </i>
   <i type="logical" name="LTETE"> F  </i>
   <i type="logical" name="LTRIPLET"> F  </i>
   <i type="logical" name="LFXCEPS"> F  </i>
   <i type="logical" name="LFXHEG"> F  </i>
   <i type="int" name="NATURALO">     2</i>
   <i type="logical" name="LHOLEGF"> F  </i>
   <i type="logical" name="L2ORDER"> F  </i>
   <i type="logical" name="LDMP1"> F  </i>
   <i type="logical" name="LMP2LT"> F  </i>
   <i type="logical" name="LSMP2LT"> F  </i>
   <i type="logical" name="LGWLF"> F  </i>
   <i name="ENCUTGW">     -2.00000000</i>
   <i name="ENCUTGWSOFT">     -2.00000000</i>
   <i name="ENCUTLF">     -1.00000000</i>
   <i type="logical" name="LESF_SPLINES"> F  </i>
   <i type="int" name="LMAXMP2">    -1</i>
   <i name="SCISSOR">      0.00000000</i>
   <i type="int" name="NOMEGA">     0</i>
   <i type="int" name="NOMEGAR">     0</i>
   <i type="int" name="NBANDSGW">    -1</i>
   <i type="int" name="NBANDSO">    -1</i>
   <i type="int" name="NBANDSV">    -1</i>
   <i type="int" name="NELMGW">     1</i>
   <i type="int" name="NELMHF">     1</i>
   <i type="int" name="DIM">     3</i>
   <i type="int" name="IESPILON">     4</i>
   <i type="int" name="ANTIRES">     0</i>
   <i name="OMEGAMAX">    -30.00000000</i>
   <i name="OMEGAMIN">    -30.00000000</i>
   <i name="OMEGATL">   -200.00000000</i>
   <i type="int" name="OMEGAGRID">     0</i>
   <i name="CSHIFT">     -0.10000000</i>
   <i type="logical" name="LSELFENERGY"> F  </i>
   <i type="logical" name="LSPECTRAL"> F  </i>
   <i type="logical" name="LSPECTRALGW"> F  </i>
   <i type="logical" name="LSINGLES"> F  </i>
   <i type="logical" name="LFERMIGW"> F  </i>
   <i type="logical" name="ODDONLYGW"> F  </i>
   <i type="logical" name="EVENONLYGW"> F  </i>
   <i type="int" name="NKREDLFX">     1</i>
   <i type="int" name="NKREDLFY">     1</i>
   <i type="int" name="NKREDLFZ">     1</i>
   <i type="int" name="MAXMEM">  2800</i>
   <i type="int" name="TELESCOPE">     0</i>
   <i type="int" name="NTAUPAR">    -1</i>
   <i type="int" name="NOMEGAPAR">    -1</i>
   <i name="DAMP_NEWTON">      0.80000001</i>
   <i name="LAMBDA">      1.00000000</i>
  </separator>
  <separator name="External order field" >
   <i name="OFIELD_KAPPA">      0.00000000</i>
   <v name="OFIELD_K">      0.00000000      0.00000000      0.00000000</v>
   <i name="OFIELD_Q6_NEAR">      0.00000000</i>
   <i name="OFIELD_Q6_FAR">      0.00000000</i>
   <i name="OFIELD_A">      0.00000000</i>
  </separator>
  <separator name="optional k-points parameters" >
   <i type="int" name="KPOINTS_OPT_MODE">     1</i>
   <i type="logical" name="LKPOINTS_OPT"> F  </i>
  </separator>
  <separator name="solvation model" >
   <i type="logical" name="LSOL"> F  </i>
  </separator>
 </parameters>
 <atominfo>
  <atoms>      98 </atoms>
  <types>       4 </types>
  <array name="atoms" >
   <dimension dim="1">ion</dimension>
   <field type="string">element</field>
   <field type="int">atomtype</field>
   <set>
    <rc><c>C </c><c>   1</c></rc>
    <rc><c>C </c><c>   1</c></rc>
    <rc><c>C </c><c>   1</c></rc>
    <rc><c>C </c><c>   1</c></rc>
    <rc><c>C </c><c>   1</c></rc>
    <rc><c>C </c><c>   1</c></rc>
    <rc><c>C </c><c>   1</c></rc>
    <rc><c>C </c><c>   1</c></rc>
    <rc><c>C </c><c>   1</c></rc>
    <rc><c>C </c><c>   1</c></rc>
    <rc><c>C </c><c>   1</c></rc>
    <rc><c>C </c><c>   1</c></rc>
    <rc><c>C </c><c>   1</c></rc>
    <rc><c>C </c><c>   1</c></rc>
    <rc><c>C </c><c>   1</c></rc>
    <rc><c>C </c><c>   1</c></rc>
    <rc><c>C </c><c>   1</c></rc>
    <rc><c>C </c><c>   1</c></rc>
    <rc><c>C </c><c>   1</c></rc>
    <rc><c>C </c><c>   1</c></rc>
    <rc><c>C </c><c>   1</c></rc>
    <rc><c>C </c><c>   1</c></rc>
    <rc><c>C </c><c>   1</c></rc>
    <rc><c>C </c><c>   1</c></rc>
    <rc><c>C </c><c>   1</c></rc>
    <rc><c>C </c><c>   1</c></rc>
    <rc><c>C </c><c>   1</c></rc>
    <rc><c>C </c><c>   1</c></rc>
    <rc><c>C </c><c>   1</c></rc>
    <rc><c>C </c><c>   1</c></rc>
    <rc><c>C </c><c>   1</c></rc>
    <rc><c>C </c><c>   1</c></rc>
    <rc><c>C </c><c>   1</c></rc>
    <rc><c>C </c><c>   1</c></rc>
    <rc><c>C </c><c>   1</c></rc>
    <rc><c>C </c><c>   1</c></rc>
    <rc><c>C </c><c>   1</c></rc>
    <rc><c>C </c><c>   1</c></rc>
    <rc><c>C </c><c>   1</c></rc>
    <rc><c>C </c><c>   1</c></rc>
    <rc><c>C </c><c>   1</c></rc>
    <rc><c>C </c><c>   1</c></rc>
    <rc><c>C </c><c>   1</c></rc>
    <rc><c>C </c><c>   1</c></rc>
    <rc><c>C </c><c>   1</c></rc>
    <rc><c>C </c><c>   1</c></rc>
    <rc><c>C </c><c>   1</c></rc>
    <rc><c>C </c><c>   1</c></rc>
    <rc><c>F </c><c>   2</c></rc>
    <rc><c>Si</c><c>   3</c></rc>
    <rc><c>Si</c><c>   3</c></rc>
    <rc><c>Si</c><c>   3</c></rc>
    <rc><c>Si</c><c>   3</c></rc>
    <rc><c>Si</c><c>   3</c></rc>
    <rc><c>Si</c><c>   3</c></rc>
    <rc><c>Si</c><c>   3</c></rc>
    <rc><c>Si</c><c>   3</c></rc>
    <rc><c>Si</c><c>   3</c></rc>
    <rc><c>Si</c><c>   3</c></rc>
    <rc><c>Si</c><c>   3</c></rc>
    <rc><c>Si</c><c>   3</c></rc>
    <rc><c>Si</c><c>   3</c></rc>
    <rc><c>Si</c><c>   3</c></rc>
    <rc><c>Si</c><c>   3</c></rc>
    <rc><c>Si</c><c>   3</c></rc>
    <rc><c>Si</c><c>   3</c></rc>
    <rc><c>Si</c><c>   3</c></rc>
    <rc><c>Si</c><c>   3</c></rc>
    <rc><c>Si</c><c>   3</c></rc>
    <rc><c>Si</c><c>   3</c></rc>
    <rc><c>Si</c><c>   3</c></rc>
    <rc><c>Si</c><c>   3</c></rc>
    <rc><c>Si</c><c>   3</c></rc>
    <rc><c>Si</c><c>   3</c></rc>
    <rc><c>Si</c><c>   3</c></rc>
    <rc><c>Si</c><c>   3</c></rc>
    <rc><c>Si</c><c>   3</c></rc>
    <rc><c>Si</c><c>   3</c></rc>
    <rc><c>Si</c><c>   3</c></rc>
    <rc><c>Si</c><c>   3</c></rc>
    <rc><c>Si</c><c>   3</c></rc>
    <rc><c>Si</c><c>   3</c></rc>
    <rc><c>Si</c><c>   3</c></rc>
    <rc><c>Si</c><c>   3</c></rc>
    <rc><c>Si</c><c>   3</c></rc>
    <rc><c>Si</c><c>   3</c></rc>
    <rc><c>Si</c><c>   3</c></rc>
    <rc><c>Si</c><c>   3</c></rc>
    <rc><c>Si</c><c>   3</c></rc>
    <rc><c>Si</c><c>   3</c></rc>
    <rc><c>Si</c><c>   3</c></rc>
    <rc><c>Si</c><c>   3</c></rc>
    <rc><c>Si</c><c>   3</c></rc>
    <rc><c>Si</c><c>   3</c></rc>
    <rc><c>Si</c><c>   3</c></rc>
    <rc><c>Si</c><c>   3</c></rc>
    <rc><c>Si</c><c>   3</c></rc>
    <rc><c>K </c><c>   4</c></rc>
   </set>
  </array>
  <array name="atomtypes" >
   <dimension dim="1">type</dimension>
   <field type="int">atomspertype</field>
   <field type="string">element</field>
   <field>mass</field>
   <field>valence</field>
   <field type="string">pseudopotential</field>
   <set>
    <rc><c>  48</c><c>C </c><c>     12.01100000</c><c>      4.00000000</c><c> PAW_PBE C 08Apr2002                    </c></rc>
    <rc><c>   1</c><c>F </c><c>     18.99800000</c><c>      7.00000000</c><c> PAW_PBE F 08Apr2002                    </c></rc>
    <rc><c>  48</c><c>Si</c><c>     28.08500000</c><c>      4.00000000</c><c> PAW_PBE Si 05Jan2001                   </c></rc>
    <rc><c>   1</c><c>K </c><c>     39.09800000</c><c>      9.00000000</c><c> PAW_PBE K_sv 06Sep2000                 </c></rc>
   </set>
  </array>
 </atominfo>
 <structure name="initialpos" >
  <crystal>
   <varray name="basis" >
    <v>       9.28425000       0.00000000       0.00000000 </v>
    <v>       0.00000000      10.72053000       0.00000000 </v>
    <v>       0.00000000       0.00000000      19.49580000 </v>
   </varray>
   <i name="volume">   1940.45753799 </i>
   <varray name="rec_basis" >
    <v>       0.10770929       0.00000000       0.00000000 </v>
    <v>       0.00000000       0.09327897       0.00000000 </v>
    <v>       0.00000000       0.00000000       0.05129310 </v>
   </varray>
  </crystal>
  <varray name="positions" >
   <v>       0.00000000       0.00000000       0.00000000 </v>
   <v>       0.16666700       0.25000000       0.00000000 </v>
   <v>       0.00000000       0.00000000       0.38944500 </v>
   <v>       0.16666700       0.25000000       0.38944500 </v>
   <v>       0.00000000       0.16666600       0.13018000 </v>
   <v>       0.16666700       0.41666600       0.13018000 </v>
   <v>       0.00000000       0.33333400       0.25985200 </v>
   <v>       0.16666700       0.08333300       0.25985200 </v>
   <v>       0.33333300       0.00000000       0.00000000 </v>
   <v>       0.50000000       0.25000000       0.00000000 </v>
   <v>       0.33333300       0.00000000       0.38944500 </v>
   <v>       0.50000000       0.25000000       0.38944500 </v>
   <v>       0.33333300       0.16666600       0.13018000 </v>
   <v>       0.50000000       0.41666600       0.13018000 </v>
   <v>       0.33333300       0.33333400       0.25985200 </v>
   <v>       0.50000000       0.08333300       0.25985200 </v>
   <v>       0.66666700       0.00000000       0.00000000 </v>
   <v>       0.83333300       0.25000000       0.00000000 </v>
   <v>       0.66666700       0.00000000       0.38944500 </v>
   <v>       0.83333300       0.25000000       0.38944500 </v>
   <v>       0.66666700       0.16666600       0.13018000 </v>
   <v>       0.83333300       0.41666600       0.13018000 </v>
   <v>       0.66666700       0.33333400       0.25985200 </v>
   <v>       0.83333300       0.08333400       0.25985200 </v>
   <v>       0.00000000       0.50000000       0.00000000 </v>
   <v>       0.16666700       0.75000000       0.00000000 </v>
   <v>       0.00000000       0.50000000       0.38944500 </v>
   <v>       0.16666700       0.75000000       0.38944500 </v>
   <v>       0.00000000       0.66666600       0.13018000 </v>
   <v>       0.16666700       0.91666600       0.13018000 </v>
   <v>       0.00000000       0.83333400       0.25985200 </v>
   <v>       0.16666700       0.58333400       0.25985200 </v>
   <v>       0.33333300       0.50000000       0.00000000 </v>
   <v>       0.50000000       0.75000000       0.00000000 </v>
   <v>       0.33333300       0.50000000       0.38944500 </v>
   <v>       0.50000000       0.75000000       0.38944500 </v>
   <v>       0.33333300       0.66666600       0.13018000 </v>
   <v>       0.50000000       0.91666700       0.13018000 </v>
   <v>       0.33333300       0.83333400       0.25985200 </v>
   <v>       0.50000000       0.58333400       0.25985200 </v>
   <v>       0.66666700       0.50000000       0.00000000 </v>
   <v>       0.83333300       0.75000000       0.00000000 </v>
   <v>       0.66666700       0.50000000       0.38944500 </v>
   <v>       0.83333300       0.75000000       0.38944500 </v>
   <v>       0.66666700       0.66666600       0.13018000 </v>
   <v>       0.83333300       0.91666700       0.13018000 </v>
   <v>       0.66666700       0.83333400       0.25985200 </v>
   <v>       0.83333300       0.58333400       0.25985200 </v>
   <v>       0.17052245       0.73465524       0.55027669 </v>
   <v>       0.00000000       0.00000000       0.09762400 </v>
   <v>       0.16666700       0.25000000       0.09762400 </v>
   <v>       0.97511793       0.98901429       0.48648783 </v>
   <v>       0.16260250       0.25484113       0.48613971 </v>
   <v>       0.00000000       0.16666600       0.22753200 </v>
   <v>       0.16666700       0.41666600       0.22753200 </v>
   <v>       0.00000000       0.33333400       0.35720700 </v>
   <v>       0.16666700       0.08333300       0.35720700 </v>
   <v>       0.33333300       0.00000000       0.09762400 </v>
   <v>       0.50000000       0.25000000       0.09762400 </v>
   <v>       0.35435983       0.99192883       0.48616795 </v>
   <v>       0.49111730       0.25150766       0.48687946 </v>
   <v>       0.33333300       0.16666600       0.22753200 </v>
   <v>       0.50000000       0.41666600       0.22753200 </v>
   <v>       0.33333300       0.33333400       0.35720700 </v>
   <v>       0.50000000       0.08333300       0.35720700 </v>
   <v>       0.66666700       0.00000000       0.09762400 </v>
   <v>       0.83333300       0.25000000       0.09762400 </v>
   <v>       0.66818743       0.98573714       0.48641147 </v>
   <v>       0.84164505       0.25722048       0.48691708 </v>
   <v>       0.66666700       0.16666600       0.22753200 </v>
   <v>       0.83333300       0.41666600       0.22753200 </v>
   <v>       0.66666700       0.33333400       0.35720700 </v>
   <v>       0.83333300       0.08333400       0.35720700 </v>
   <v>       0.00000000       0.50000000       0.09762400 </v>
   <v>       0.16666700       0.75000000       0.09762400 </v>
   <v>       0.99139481       0.47520039       0.48627740 </v>
   <v>       0.16476634       0.82715715       0.48214301 </v>
   <v>       0.00000000       0.66666600       0.22753200 </v>
   <v>       0.16666700       0.91666600       0.22753200 </v>
   <v>       0.00000000       0.83333400       0.35720700 </v>
   <v>       0.16666700       0.58333400       0.35720700 </v>
   <v>       0.33333300       0.50000000       0.09762400 </v>
   <v>       0.50000000       0.75000000       0.09762400 </v>
   <v>       0.33215624       0.46886243       0.48699765 </v>
   <v>       0.52308381       0.76549790       0.48678018 </v>
   <v>       0.33333300       0.66666600       0.22753200 </v>
   <v>       0.50000000       0.91666700       0.22753200 </v>
   <v>       0.33333300       0.83333400       0.35720700 </v>
   <v>       0.50000000       0.58333400       0.35720700 </v>
   <v>       0.66666700       0.50000000       0.09762400 </v>
   <v>       0.83333300       0.75000000       0.09762400 </v>
   <v>       0.68022716       0.50226767       0.48692617 </v>
   <v>       0.81239903       0.75787088       0.48609823 </v>
   <v>       0.66666700       0.66666600       0.22753200 </v>
   <v>       0.83333300       0.91666700       0.22753200 </v>
   <v>       0.66666700       0.83333400       0.35720700 </v>
   <v>       0.83333300       0.58333400       0.35720700 </v>
   <v>       0.36277300       0.64242376       0.63823878 </v>
  </varray>
  <varray name="selective"  type="logical" >
   <v type="logical" >  F  F  F </v>
   <v type="logical" >  F  F  F </v>
   <v type="logical" >  F  F  F </v>
   <v type="logical" >  F  F  F </v>
   <v type="logical" >  F  F  F </v>
   <v type="logical" >  F  F  F </v>
   <v type="logical" >  F  F  F </v>
   <v type="logical" >  F  F  F </v>
   <v type="logical" >  F  F  F </v>
   <v type="logical" >  F  F  F </v>
   <v type="logical" >  F  F  F </v>
   <v type="logical" >  F  F  F </v>
   <v type="logical" >  F  F  F </v>
   <v type="logical" >  F  F  F </v>
   <v type="logical" >  F  F  F </v>
   <v type="logical" >  F  F  F </v>
   <v type="logical" >  F  F  F </v>
   <v type="logical" >  F  F  F </v>
   <v type="logical" >  F  F  F </v>
   <v type="logical" >  F  F  F </v>
   <v type="logical" >  F  F  F </v>
   <v type="logical" >  F  F  F </v>
   <v type="logical" >  F  F  F </v>
   <v type="logical" >  F  F  F </v>
   <v type="logical" >  F  F  F </v>
   <v type="logical" >  F  F  F </v>
   <v type="logical" >  F  F  F </v>
   <v type="logical" >  F  F  F </v>
   <v type="logical" >  F  F  F </v>
   <v type="logical" >  F  F  F </v>
   <v type="logical" >  F  F  F </v>
   <v type="logical" >  F  F  F </v>
   <v type="logical" >  F  F  F </v>
   <v type="logical" >  F  F  F </v>
   <v type="logical" >  F  F  F </v>
   <v type="logical" >  F  F  F </v>
   <v type="logical" >  F  F  F </v>
   <v type="logical" >  F  F  F </v>
   <v type="logical" >  F  F  F </v>
   <v type="logical" >  F  F  F </v>
   <v type="logical" >  F  F  F </v>
   <v type="logical" >  F  F  F </v>
   <v type="logical" >  F  F  F </v>
   <v type="logical" >  F  F  F </v>
   <v type="logical" >  F  F  F </v>
   <v type="logical" >  F  F  F </v>
   <v type="logical" >  F  F  F </v>
   <v type="logical" >  F  F  F </v>
   <v type="logical" >  T  T  T </v>
   <v type="logical" >  F  F  F </v>
   <v type="logical" >  F  F  F </v>
   <v type="logical" >  T  T  T </v>
   <v type="logical" >  T  T  T </v>
   <v type="logical" >  F  F  F </v>
   <v type="logical" >  F  F  F </v>
   <v type="logical" >  F  F  F </v>
   <v type="logical" >  F  F  F </v>
   <v type="logical" >  F  F  F </v>
   <v type="logical" >  F  F  F </v>
   <v type="logical" >  T  T  T </v>
   <v type="logical" >  T  T  T </v>
   <v type="logical" >  F  F  F </v>
   <v type="logical" >  F  F  F </v>
   <v type="logical" >  F  F  F </v>
   <v type="logical" >  F  F  F </v>
   <v type="logical" >  F  F  F </v>
   <v type="logical" >  F  F  F </v>
   <v type="logical" >  T  T  T </v>
   <v type="logical" >  T  T  T </v>
   <v type="logical" >  F  F  F </v>
   <v type="logical" >  F  F  F </v>
   <v type="logical" >  F  F  F </v>
   <v type="logical" >  F  F  F </v>
   <v type="logical" >  F  F  F </v>
   <v type="logical" >  F  F  F </v>
   <v type="logical" >  T  T  T </v>
   <v type="logical" >  T  T  T </v>
   <v type="logical" >  F  F  F </v>
   <v type="logical" >  F  F  F </v>
   <v type="logical" >  F  F  F </v>
   <v type="logical" >  F  F  F </v>
   <v type="logical" >  F  F  F </v>
   <v type="logical" >  F  F  F </v>
   <v type="logical" >  T  T  T </v>
   <v type="logical" >  T  T  T </v>
   <v type="logical" >  F  F  F </v>
   <v type="logical" >  F  F  F </v>
   <v type="logical" >  F  F  F </v>
   <v type="logical" >  F  F  F </v>
   <v type="logical" >  F  F  F </v>
   <v type="logical" >  F  F  F </v>
   <v type="logical" >  T  T  T </v>
   <v type="logical" >  T  T  T </v>
   <v type="logical" >  F  F  F </v>
   <v type="logical" >  F  F  F </v>
   <v type="logical" >  F  F  F </v>
   <v type="logical" >  F  F  F </v>
   <v type="logical" >  T  T  T </v>
  </varray>
  <nose>
   <v>      -3.00000000       0.00000000       0.00010000       0.00010000 </v>
  </nose>
 </structure>
 <calculation>
  <scstep>
   <time name="dav">   43.78    6.29</time>
   <time name="total">   54.45    8.08</time>
   <energy>
    <i name="alphaZ">    318.41319391 </i>
    <i name="ewald">  30862.42824000 </i>
    <i name="hartreedc"> -43920.85597450 </i>
    <i name="XCdc">    283.03995574 </i>
    <i name="pawpsdc">   4337.97084573 </i>
    <i name="pawaedc">  -3548.78544197 </i>
    <i name="eentropy">     -0.10762916 </i>
    <i name="bandstr">    365.28800399 </i>
    <i name="atom">  13444.54662946 </i>
    <i name="e_fr_energy">   2141.93782321 </i>
    <i name="e_wo_entrp">   2142.04545236 </i>
    <i name="e_0_energy">   2141.99163779 </i>
   </energy>
  </scstep>
  <scstep>
   <time name="dav">   52.43    7.51</time>
   <time name="total">   52.44    7.51</time>
   <energy>
    <i name="e_fr_energy">   -390.92375743 </i>
    <i name="e_wo_entrp">   -390.84195734 </i>
    <i name="e_0_energy">   -390.88285738 </i>
   </energy>
  </scstep>
  <scstep>
   <time name="dav">   53.28    7.64</time>
   <time name="total">   53.30    7.64</time>
   <energy>
    <i name="e_fr_energy">   -705.54820537 </i>
    <i name="e_wo_entrp">   -705.44734952 </i>
    <i name="e_0_energy">   -705.49777745 </i>
   </energy>
  </scstep>
  <scstep>
   <time name="dav">   54.43    7.83</time>
   <time name="total">   54.44    7.84</time>
   <energy>
    <i name="e_fr_energy">   -723.07898068 </i>
    <i name="e_wo_entrp">   -722.96927563 </i>
    <i name="e_0_energy">   -723.02412816 </i>
   </energy>
  </scstep>
  <scstep>
   <time name="dav">   56.33    8.07</time>
   <time name="total">   59.62    8.64</time>
   <energy>
    <i name="e_fr_energy">   -723.81834500 </i>
    <i name="e_wo_entrp">   -723.70820147 </i>
    <i name="e_0_energy">   -723.76327324 </i>
   </energy>
  </scstep>
  <scstep>
   <time name="diag">    3.38    0.68</time>
   <time name="diis">    6.81    3.06</time>
   <time name="orth">    0.13    0.06</time>
   <time name="total">   22.56    6.01</time>
   <energy>
    <i name="e_fr_energy">   -646.52744733 </i>
    <i name="e_wo_entrp">   -646.41420126 </i>
    <i name="e_0_energy">   -646.47082430 </i>
   </energy>
  </scstep>
  <scstep>
   <time name="diag">    3.10    0.65</time>
   <time name="diis">    7.52    3.35</time>
   <time name="orth">    0.13    0.07</time>
   <time name="total">   23.13    6.29</time>
   <energy>
    <i name="e_fr_energy">   -647.95569324 </i>
    <i name="e_wo_entrp">   -647.85634071 </i>
    <i name="e_0_energy">   -647.90601697 </i>
   </energy>
  </scstep>
  <scstep>
   <time name="diag">    3.19    0.66</time>
   <time name="diis">    7.53    3.34</time>
   <time name="orth">    0.13    0.07</time>
   <time name="total">   23.19    6.28</time>
   <energy>
    <i name="e_fr_energy">   -646.59533669 </i>
    <i name="e_wo_entrp">   -646.48562793 </i>
    <i name="e_0_energy">   -646.54048231 </i>
   </energy>
  </scstep>
  <scstep>
   <time name="diag">    3.09    0.65</time>
   <time name="diis">    7.12    3.14</time>
   <time name="orth">    0.13    0.07</time>
   <time name="total">   22.72    6.08</time>
   <energy>
    <i name="e_fr_energy">   -646.22597834 </i>
    <i name="e_wo_entrp">   -646.09422561 </i>
    <i name="e_0_energy">   -646.16010197 </i>
   </energy>
  </scstep>
  <scstep>
   <time name="diag">    3.28    0.67</time>
   <time name="diis">    7.65    3.41</time>
   <time name="orth">    0.13    0.07</time>
   <time name="total">   23.33    6.35</time>
   <energy>
    <i name="e_fr_energy">   -645.72471447 </i>
    <i name="e_wo_entrp">   -645.59924038 </i>
    <i name="e_0_energy">   -645.66197742 </i>
   </energy>
  </scstep>
  <scstep>
   <time name="diag">    3.21    0.65</time>
   <time name="diis">    8.66    3.92</time>
   <time name="orth">    0.13    0.07</time>
   <time name="total">   24.26    6.85</time>
   <energy>
    <i name="e_fr_energy">   -645.60358996 </i>
    <i name="e_wo_entrp">   -645.47960344 </i>
    <i name="e_0_energy">   -645.54159670 </i>
   </energy>
  </scstep>
  <scstep>
   <time name="diag">    3.20    0.66</time>
   <time name="diis">    8.94    4.06</time>
   <time name="orth">    0.13    0.07</time>
   <time name="total">   24.59    7.00</time>
   <energy>
    <i name="e_fr_energy">   -645.57537191 </i>
    <i name="e_wo_entrp">   -645.45302677 </i>
    <i name="e_0_energy">   -645.51419934 </i>
   </energy>
  </scstep>
  <scstep>
   <time name="diag">    3.14    0.66</time>
   <time name="diis">    7.48    3.33</time>
   <time name="orth">    0.13    0.07</time>
   <time name="total">   23.17    6.28</time>
   <energy>
    <i name="e_fr_energy">   -645.49399959 </i>
    <i name="e_wo_entrp">   -645.37231416 </i>
    <i name="e_0_energy">   -645.43315687 </i>
   </energy>
  </scstep>
  <scstep>
   <time name="diag">    3.15    0.66</time>
   <time name="diis">    8.62    3.91</time>
   <time name="orth">    0.13    0.07</time>
   <time name="total">   24.33    6.86</time>
   <energy>
    <i name="e_fr_energy">   -645.47825248 </i>
    <i name="e_wo_entrp">   -645.35727739 </i>
    <i name="e_0_energy">   -645.41776493 </i>
   </energy>
  </scstep>
  <scstep>
   <time name="diag">    3.05    0.65</time>
   <time name="diis">    8.95    4.07</time>
   <time name="orth">    0.13    0.07</time>
   <time name="total">   24.71    7.04</time>
   <energy>
    <i name="e_fr_energy">   -645.45688565 </i>
    <i name="e_wo_entrp">   -645.33802005 </i>
    <i name="e_0_energy">   -645.39745285 </i>
   </energy>
  </scstep>
  <scstep>
   <time name="diag">    3.19    0.66</time>
   <time name="diis">    9.44    4.33</time>
   <time name="orth">    0.13    0.07</time>
   <time name="total">   25.30    7.30</time>
   <energy>
    <i name="e_fr_energy">   -645.46019926 </i>
    <i name="e_wo_entrp">   -645.34201742 </i>
    <i name="e_0_energy">   -645.40110834 </i>
   </energy>
  </scstep>
  <scstep>
   <time name="diag">    3.15    0.66</time>
   <time name="diis">    9.92    4.56</time>
   <time name="orth">    0.13    0.06</time>
   <time name="total">   25.73    7.54</time>
   <energy>
    <i name="e_fr_energy">   -645.45965174 </i>
    <i name="e_wo_entrp">   -645.34161932 </i>
    <i name="e_0_energy">   -645.40063553 </i>
   </energy>
  </scstep>
  <scstep>
   <time name="diag">    3.26    0.65</time>
   <time name="diis">    9.66    4.41</time>
   <time name="orth">    0.13    0.06</time>
   <time name="total">   25.49    7.37</time>
   <energy>
    <i name="e_fr_energy">   -645.46160347 </i>
    <i name="e_wo_entrp">   -645.34301612 </i>
    <i name="e_0_energy">   -645.40230980 </i>
   </energy>
  </scstep>
  <scstep>
   <time name="diag">    3.25    0.65</time>
   <time name="diis">   11.06    5.14</time>
   <time name="orth">    0.13    0.07</time>
   <time name="total">   26.93    8.10</time>
   <energy>
    <i name="e_fr_energy">   -645.46445165 </i>
    <i name="e_wo_entrp">   -645.34586038 </i>
    <i name="e_0_energy">   -645.40515602 </i>
   </energy>
  </scstep>
  <scstep>
   <time name="diag">    3.16    0.65</time>
   <time name="diis">   10.38    4.79</time>
   <time name="orth">    0.13    0.06</time>
   <time name="total">   26.23    7.76</time>
   <energy>
    <i name="e_fr_energy">   -645.46729418 </i>
    <i name="e_wo_entrp">   -645.34873069 </i>
    <i name="e_0_energy">   -645.40801244 </i>
   </energy>
  </scstep>
  <scstep>
   <time name="diag">    3.25    0.67</time>
   <time name="diis">   10.22    4.74</time>
   <time name="orth">    0.13    0.07</time>
   <time name="total">   26.14    7.72</time>
   <energy>
    <i name="e_fr_energy">   -645.47100951 </i>
    <i name="e_wo_entrp">   -645.35230969 </i>
    <i name="e_0_energy">   -645.41165960 </i>
   </energy>
  </scstep>
  <scstep>
   <time name="diag">    3.36    0.67</time>
   <time name="diis">   11.12    5.21</time>
   <time name="orth">    0.13    0.07</time>
   <time name="total">   27.14    8.19</time>
   <energy>
    <i name="e_fr_energy">   -645.47164061 </i>
    <i name="e_wo_entrp">   -645.35285122 </i>
    <i name="e_0_energy">   -645.41224591 </i>
   </energy>
  </scstep>
  <scstep>
   <time name="diag">    3.11    0.66</time>
   <time name="diis">   11.28    5.25</time>
   <time name="orth">    0.13    0.07</time>
   <time name="total">   27.21    8.25</time>
   <energy>
    <i name="e_fr_energy">   -645.47235683 </i>
    <i name="e_wo_entrp">   -645.35354472 </i>
    <i name="e_0_energy">   -645.41295077 </i>
   </energy>
  </scstep>
  <scstep>
   <time name="diag">    3.22    0.66</time>
   <time name="diis">   11.03    5.12</time>
   <time name="orth">    0.13    0.07</time>
   <time name="total">   27.07    8.11</time>
   <energy>
    <i name="e_fr_energy">   -645.47284771 </i>
    <i name="e_wo_entrp">   -645.35402596 </i>
    <i name="e_0_energy">   -645.41343684 </i>
   </energy>
  </scstep>
  <scstep>
   <time name="diag">    3.25    0.66</time>
   <time name="diis">   11.10    5.15</time>
   <time name="orth">    0.13    0.07</time>
   <time name="total">   27.09    8.13</time>
   <energy>
    <i name="e_fr_energy">   -645.47298656 </i>
    <i name="e_wo_entrp">   -645.35416795 </i>
    <i name="e_0_energy">   -645.41357726 </i>
   </energy>
  </scstep>
  <scstep>
   <time name="diag">    3.27    0.66</time>
   <time name="diis">   11.48    5.36</time>
   <time name="orth">    0.13    0.07</time>
   <time name="total">   27.60    8.35</time>
   <energy>
    <i name="e_fr_energy">   -645.47316497 </i>
    <i name="e_wo_entrp">   -645.35435020 </i>
    <i name="e_0_energy">   -645.41375759 </i>
   </energy>
  </scstep>
  <scstep>
   <time name="diag">    3.35    0.68</time>
   <time name="diis">   10.30    4.82</time>
   <time name="orth">    0.13    0.07</time>
   <time name="total">   26.67    7.87</time>
   <energy>
    <i name="e_fr_energy">   -645.47324858 </i>
    <i name="e_wo_entrp">   -645.35443156 </i>
    <i name="e_0_energy">   -645.41384007 </i>
   </energy>
  </scstep>
  <scstep>
   <time name="diag">    3.25    0.66</time>
   <time name="diis">    9.37    4.29</time>
   <time name="orth">    0.13    0.07</time>
   <time name="total">   25.56    7.30</time>
   <energy>
    <i name="e_fr_energy">   -645.47328770 </i>
    <i name="e_wo_entrp">   -645.35446855 </i>
    <i name="e_0_energy">   -645.41387813 </i>
   </energy>
  </scstep>
  <scstep>
   <time name="diag">    3.17    0.67</time>
   <time name="diis">    9.09    4.15</time>
   <time name="orth">    0.13    0.07</time>
   <time name="total">   25.32    7.18</time>
   <energy>
    <i name="e_fr_energy">   -645.47331251 </i>
    <i name="e_wo_entrp">   -645.35449266 </i>
    <i name="e_0_energy">   -645.41390259 </i>
   </energy>
  </scstep>
  <scstep>
   <time name="diag">    3.15    0.66</time>
   <time name="diis">    7.50    3.35</time>
   <time name="orth">    0.13    0.07</time>
   <time name="total">   23.88    6.40</time>
   <energy>
    <i name="e_fr_energy">   -645.47331849 </i>
    <i name="e_wo_entrp">   -645.35450102 </i>
    <i name="e_0_energy">   -645.41390975 </i>
   </energy>
  </scstep>
  <scstep>
   <time name="diag">    3.15    0.67</time>
   <time name="diis">    7.82    3.50</time>
   <time name="orth">    0.13    0.07</time>
   <time name="total">   24.07    6.54</time>
   <energy>
    <i name="e_fr_energy">   -645.47332209 </i>
    <i name="e_wo_entrp">   -645.35450489 </i>
    <i name="e_0_energy">   -645.41391349 </i>
   </energy>
  </scstep>
  <scstep>
   <time name="diag">    3.21    0.65</time>
   <time name="diis">    6.82    3.00</time>
   <time name="orth">    0.13    0.07</time>
   <time name="total">   23.21    6.03</time>
   <energy>
    <i name="e_fr_energy">   -645.47332408 </i>
    <i name="e_wo_entrp">   -645.35450659 </i>
    <i name="e_0_energy">   -645.41391533 </i>
   </energy>
  </scstep>
  <scstep>
   <time name="diag">    3.20    0.66</time>
   <time name="diis">    6.81    2.99</time>
   <time name="orth">    0.13    0.06</time>
   <time name="total">   23.25    6.04</time>
   <energy>
    <i name="e_fr_energy">   -645.47332579 </i>
    <i name="e_wo_entrp">   -645.35450865 </i>
    <i name="e_0_energy">   -645.41391722 </i>
   </energy>
  </scstep>
  <scstep>
   <time name="diag">    3.17    0.65</time>
   <time name="diis">    6.32    2.75</time>
   <time name="orth">    0.13    0.07</time>
   <time name="total">   19.79    5.17</time>
   <energy>
    <i name="alphaZ">    318.41319391 </i>
    <i name="ewald">  30862.42824000 </i>
    <i name="hartreedc"> -44632.06226011 </i>
    <i name="XCdc">    325.52979736 </i>
    <i name="pawpsdc">   5473.56326903 </i>
    <i name="pawaedc">  -4693.76459173 </i>
    <i name="eentropy">     -0.11881658 </i>
    <i name="bandstr">  -1744.00878793 </i>
    <i name="atom">  13444.54662946 </i>
    <i name="e_fr_energy">   -645.47332657 </i>
    <i name="e_wo_entrp">   -645.35451000 </i>
    <i name="e_0_energy">   -645.41391829 </i>
   </energy>
  </scstep>
  <structure>
   <crystal>
    <varray name="basis" >
     <v>       9.28425000       0.00000000       0.00000000 </v>
     <v>       0.00000000      10.72053000       0.00000000 </v>
     <v>       0.00000000       0.00000000      19.49580000 </v>
    </varray>
    <i name="volume">   1940.45753799 </i>
    <varray name="rec_basis" >
     <v>       0.10770929       0.00000000       0.00000000 </v>
     <v>       0.00000000       0.09327897       0.00000000 </v>
     <v>       0.00000000       0.00000000       0.05129310 </v>
    </varray>
   </crystal>
   <varray name="positions" >
    <v>       0.00000000       0.00000000       0.00000000 </v>
    <v>       0.16666700       0.25000000       0.00000000 </v>
    <v>       0.00000000       0.00000000       0.38944500 </v>
    <v>       0.16666700       0.25000000       0.38944500 </v>
    <v>       0.00000000       0.16666600       0.13018000 </v>
    <v>       0.16666700       0.41666600       0.13018000 </v>
    <v>       0.00000000       0.33333400       0.25985200 </v>
    <v>       0.16666700       0.08333300       0.25985200 </v>
    <v>       0.33333300       0.00000000       0.00000000 </v>
    <v>       0.50000000       0.25000000       0.00000000 </v>
    <v>       0.33333300       0.00000000       0.38944500 </v>
    <v>       0.50000000       0.25000000       0.38944500 </v>
    <v>       0.33333300       0.16666600       0.13018000 </v>
    <v>       0.50000000       0.41666600       0.13018000 </v>
    <v>       0.33333300       0.33333400       0.25985200 </v>
    <v>       0.50000000       0.08333300       0.25985200 </v>
    <v>       0.66666700       0.00000000       0.00000000 </v>
    <v>       0.83333300       0.25000000       0.00000000 </v>
    <v>       0.66666700       0.00000000       0.38944500 </v>
    <v>       0.83333300       0.25000000       0.38944500 </v>
    <v>       0.66666700       0.16666600       0.13018000 </v>
    <v>       0.83333300       0.41666600       0.13018000 </v>
    <v>       0.66666700       0.33333400       0.25985200 </v>
    <v>       0.83333300       0.08333400       0.25985200 </v>
    <v>       0.00000000       0.50000000       0.00000000 </v>
    <v>       0.16666700       0.75000000       0.00000000 </v>
    <v>       0.00000000       0.50000000       0.38944500 </v>
    <v>       0.16666700       0.75000000       0.38944500 </v>
    <v>       0.00000000       0.66666600       0.13018000 </v>
    <v>       0.16666700       0.91666600       0.13018000 </v>
    <v>       0.00000000       0.83333400       0.25985200 </v>
    <v>       0.16666700       0.58333400       0.25985200 </v>
    <v>       0.33333300       0.50000000       0.00000000 </v>
    <v>       0.50000000       0.75000000       0.00000000 </v>
    <v>       0.33333300       0.50000000       0.38944500 </v>
    <v>       0.50000000       0.75000000       0.38944500 </v>
    <v>       0.33333300       0.66666600       0.13018000 </v>
    <v>       0.50000000       0.91666700       0.13018000 </v>
    <v>       0.33333300       0.83333400       0.25985200 </v>
    <v>       0.50000000       0.58333400       0.25985200 </v>
    <v>       0.66666700       0.50000000       0.00000000 </v>
    <v>       0.83333300       0.75000000       0.00000000 </v>
    <v>       0.66666700       0.50000000       0.38944500 </v>
    <v>       0.83333300       0.75000000       0.38944500 </v>
    <v>       0.66666700       0.66666600       0.13018000 </v>
    <v>       0.83333300       0.91666700       0.13018000 </v>
    <v>       0.66666700       0.83333400       0.25985200 </v>
    <v>       0.83333300       0.58333400       0.25985200 </v>
    <v>       0.17052245       0.73465524       0.55027669 </v>
    <v>       0.00000000       0.00000000       0.09762400 </v>
    <v>       0.16666700       0.25000000       0.09762400 </v>
    <v>       0.97511793       0.98901429       0.48648783 </v>
    <v>       0.16260250       0.25484113       0.48613971 </v>
    <v>       0.00000000       0.16666600       0.22753200 </v>
    <v>       0.16666700       0.41666600       0.22753200 </v>
    <v>       0.00000000       0.33333400       0.35720700 </v>
    <v>       0.16666700       0.08333300       0.35720700 </v>
    <v>       0.33333300       0.00000000       0.09762400 </v>
    <v>       0.50000000       0.25000000       0.09762400 </v>
    <v>       0.35435983       0.99192883       0.48616795 </v>
    <v>       0.49111730       0.25150766       0.48687946 </v>
    <v>       0.33333300       0.16666600       0.22753200 </v>
    <v>       0.50000000       0.41666600       0.22753200 </v>
    <v>       0.33333300       0.33333400       0.35720700 </v>
    <v>       0.50000000       0.08333300       0.35720700 </v>
    <v>       0.66666700       0.00000000       0.09762400 </v>
    <v>       0.83333300       0.25000000       0.09762400 </v>
    <v>       0.66818743       0.98573714       0.48641147 </v>
    <v>       0.84164505       0.25722048       0.48691708 </v>
    <v>       0.66666700       0.16666600       0.22753200 </v>
    <v>       0.83333300       0.41666600       0.22753200 </v>
    <v>       0.66666700       0.33333400       0.35720700 </v>
    <v>       0.83333300       0.08333400       0.35720700 </v>
    <v>       0.00000000       0.50000000       0.09762400 </v>
    <v>       0.16666700       0.75000000       0.09762400 </v>
    <v>       0.99139481       0.47520039       0.48627740 </v>
    <v>       0.16476634       0.82715715       0.48214301 </v>
    <v>       0.00000000       0.66666600       0.22753200 </v>
    <v>       0.16666700       0.91666600       0.22753200 </v>
    <v>       0.00000000       0.83333400       0.35720700 </v>
    <v>       0.16666700       0.58333400       0.35720700 </v>
    <v>       0.33333300       0.50000000       0.09762400 </v>
    <v>       0.50000000       0.75000000       0.09762400 </v>
    <v>       0.33215624       0.46886243       0.48699765 </v>
    <v>       0.52308381       0.76549790       0.48678018 </v>
    <v>       0.33333300       0.66666600       0.22753200 </v>
    <v>       0.50000000       0.91666700       0.22753200 </v>
    <v>       0.33333300       0.83333400       0.35720700 </v>
    <v>       0.50000000       0.58333400       0.35720700 </v>
    <v>       0.66666700       0.50000000       0.09762400 </v>
    <v>       0.83333300       0.75000000       0.09762400 </v>
    <v>       0.68022716       0.50226767       0.48692617 </v>
    <v>       0.81239903       0.75787088       0.48609823 </v>
    <v>       0.66666700       0.66666600       0.22753200 </v>
    <v>       0.83333300       0.91666700       0.22753200 </v>
    <v>       0.66666700       0.83333400       0.35720700 </v>
    <v>       0.83333300       0.58333400       0.35720700 </v>
    <v>       0.36277300       0.64242376       0.63823878 </v>
   </varray>
  </structure>
  <varray name="forces" >
   <v>      -0.00371504      -0.00127590      -0.17438766 </v>
   <v>       0.00223858      -0.00192204      -0.19068508 </v>
   <v>      -0.35959632      -0.09148770      -0.08617086 </v>
   <v>      -0.06797103      -0.08907926      -0.19154586 </v>
   <v>       0.01211554      -0.00143993       0.05690269 </v>
   <v>      -0.00148786       0.02933252       0.08011132 </v>
   <v>       0.01701679       0.00870613      -0.00805575 </v>
   <v>       0.00087925      -0.05795465       0.15517870 </v>
   <v>       0.00384383      -0.00462928      -0.18368924 </v>
   <v>       0.00281092       0.00179070      -0.18944102 </v>
   <v>       0.30120865      -0.01303418      -0.20932453 </v>
   <v>      -0.11962545      -0.10232860       0.20655705 </v>
   <v>      -0.00566983      -0.00323365       0.06348596 </v>
   <v>       0.00041952       0.00240876       0.08239095 </v>
   <v>      -0.00321689      -0.00898212       0.01346322 </v>
   <v>       0.02346614       0.03123610       0.07446557 </v>
   <v>      -0.00073092      -0.00603990      -0.18658093 </v>
   <v>      -0.00318506      -0.00370658      -0.18537255 </v>
   <v>       0.05782889      -0.07899314      -0.10618242 </v>
   <v>       0.11697355      -0.01369731       0.14275166 </v>
   <v>      -0.00388744       0.01345784       0.04655015 </v>
   <v>      -0.00160247       0.00181524       0.06864060 </v>
   <v>      -0.02046703       0.00879778       0.12291040 </v>
   <v>      -0.01891945       0.04917792       0.07196163 </v>
   <v>       0.00608906      -0.00492801      -0.19215458 </v>
   <v>       0.00298585      -0.00763539      -0.19977634 </v>
   <v>      -0.01453238      -0.26295192       0.08828722 </v>
   <v>      -0.00564545       0.87909386       1.20576204 </v>
   <v>       0.00891679      -0.01866132       0.07714482 </v>
   <v>      -0.00124450      -0.00163317       0.07107221 </v>
   <v>       0.04978118      -0.05149892       0.09258447 </v>
   <v>       0.02275627       0.16685967       0.26002605 </v>
   <v>      -0.00092883      -0.00278116      -0.18925703 </v>
   <v>      -0.00021268      -0.00907052      -0.19648696 </v>
   <v>      -0.05556742      -0.45816993       0.44697282 </v>
   <v>       0.21160601       0.18664181       0.14132232 </v>
   <v>      -0.00108361      -0.01469938       0.08496018 </v>
   <v>      -0.01404571      -0.01071473       0.04182367 </v>
   <v>      -0.03915472      -0.05651483       0.10310155 </v>
   <v>      -0.04443166      -0.00375021       0.16150659 </v>
   <v>      -0.00299235      -0.00524640      -0.17524991 </v>
   <v>      -0.00329365      -0.00588467      -0.19843025 </v>
   <v>       0.14768158       0.04892247       0.19398071 </v>
   <v>      -0.18798474       0.06183154      -0.17162133 </v>
   <v>      -0.00683329      -0.01015275       0.06376257 </v>
   <v>       0.01595153      -0.00489923       0.04091092 </v>
   <v>      -0.00023931       0.03457137      -0.05716062 </v>
   <v>       0.03390214       0.00011738       0.07958566 </v>
   <v>      -0.00398634      -0.00617274       0.00831847 </v>
   <v>       0.00430707       0.00292934       0.14268442 </v>
   <v>      -0.00151133       0.00138925       0.14878712 </v>
   <v>       0.00034818       0.00336549      -0.00040127 </v>
   <v>      -0.00154213       0.00269775      -0.00015186 </v>
   <v>      -0.03838278       0.00759424      -0.08426452 </v>
   <v>      -0.01006685      -0.10264912      -0.07542424 </v>
   <v>       0.00331545      -0.01762843      -0.37811013 </v>
   <v>      -0.01967072       0.06607755       0.14309765 </v>
   <v>      -0.00709629       0.00668732       0.13651911 </v>
   <v>       0.00446375       0.00298079       0.15071121 </v>
   <v>       0.00045209      -0.00212073      -0.00077471 </v>
   <v>      -0.00085329      -0.00345579       0.00108458 </v>
   <v>       0.03404235       0.00389557      -0.09420462 </v>
   <v>      -0.02181153      -0.03374475      -0.09905248 </v>
   <v>      -0.06107044      -0.03314722      -0.35790032 </v>
   <v>       0.06281299      -0.05151441      -0.29413539 </v>
   <v>       0.00409241       0.00644436       0.15696895 </v>
   <v>      -0.00452592       0.00467053       0.14669223 </v>
   <v>       0.00295871       0.00276775       0.00096220 </v>
   <v>       0.00042902      -0.00032548       0.00044027 </v>
   <v>       0.00400298      -0.04185820      -0.09776977 </v>
   <v>       0.03220863      -0.00168813      -0.08549066 </v>
   <v>       0.05584650      -0.00750269      -0.04437783 </v>
   <v>      -0.05714437      -0.01647586      -0.26876859 </v>
   <v>      -0.01304543       0.00474162       0.14288641 </v>
   <v>       0.00063046       0.01421302       0.13738629 </v>
   <v>       0.00159897      -0.00068506      -0.00132144 </v>
   <v>      -0.00150833      -0.00073982       0.00137164 </v>
   <v>      -0.05941485       0.03961578      -0.13456594 </v>
   <v>      -0.00680716      -0.01346874      -0.11418761 </v>
   <v>      -0.35567281       0.06891098      -0.45557675 </v>
   <v>      -0.05660046      -0.25689615       0.63840868 </v>
   <v>       0.01127448       0.00719938       0.12288672 </v>
   <v>       0.00411750       0.01217063       0.14512713 </v>
   <v>      -0.00486270       0.00001519       0.00001531 </v>
   <v>      -0.00080020       0.00211535      -0.00095752 </v>
   <v>       0.02801152       0.04551054      -0.14825256 </v>
   <v>       0.05703971      -0.00151515      -0.07259636 </v>
   <v>       0.32029957       0.09541979      -0.39884003 </v>
   <v>       0.08586807       0.01047587       0.23916560 </v>
   <v>       0.00179081       0.00034100       0.12414015 </v>
   <v>      -0.00451746       0.01176166       0.15204977 </v>
   <v>       0.00049423       0.00166437       0.00129808 </v>
   <v>      -0.00280868      -0.00020077      -0.00047926 </v>
   <v>       0.03117727       0.06852177      -0.07538571 </v>
   <v>      -0.05132468      -0.00424725      -0.07057314 </v>
   <v>       0.01931157      -0.01208716      -0.53808213 </v>
   <v>      -0.02130677       0.01096711      -0.09948406 </v>
   <v>      -0.01476973      -0.01478465       0.00352611 </v>
  </varray>
  <varray name="stress" >
   <v>     -33.11560070       0.23834913      -0.09944663 </v>
   <v>       0.23834881     -34.84355362      -0.01864564 </v>
   <v>      -0.09944669      -0.01864583       1.57796358 </v>
  </varray>
  <energy>
   <i name="e_fr_energy">   -645.47332657 </i>
   <i name="e_wo_entrp">   -645.35451000 </i>
   <i name="e_0_energy">   -645.41391829 </i>
  </energy>
  <time name="totalsc"> 1046.75  258.66</time>
  <eigenvalues>
   <array>
    <dimension dim="1">band</dimension>
    <dimension dim="2">kpoint</dimension>
    <dimension dim="3">spin</dimension>
    <field>eigene</field>
    <field>occ</field>
    <set>
     <set comment="spin 1">
      <set comment="kpoint 1">
       <r>  -29.2999    1.0000 </r>
       <r>  -23.5830    1.0000 </r>
       <r>  -13.7224    1.0000 </r>
       <r>  -12.8446    1.0000 </r>
       <r>  -12.8311    1.0000 </r>
       <r>  -12.8134    1.0000 </r>
       <r>  -12.7765    1.0000 </r>
       <r>  -12.7085    1.0000 </r>
       <r>  -12.6471    1.0000 </r>
       <r>  -12.3466    1.0000 </r>
       <r>  -12.3354    1.0000 </r>
       <r>  -11.8854    1.0000 </r>
       <r>  -11.7746    1.0000 </r>
       <r>  -11.5344    1.0000 </r>
       <r>  -11.5275    1.0000 </r>
       <r>  -11.5099    1.0000 </r>
       <r>  -11.4179    1.0000 </r>
       <r>  -11.4110    1.0000 </r>
       <r>  -11.3654    1.0000 </r>
       <r>  -11.3543    1.0000 </r>
       <r>  -10.7001    1.0000 </r>
       <r>  -10.6747    1.0000 </r>
       <r>  -10.6287    1.0000 </r>
       <r>  -10.6009    1.0000 </r>
       <r>  -10.5921    1.0000 </r>
       <r>  -10.5409    1.0000 </r>
       <r>  -10.4004    1.0000 </r>
       <r>  -10.3108    1.0000 </r>
       <r>  -10.3035    1.0000 </r>
       <r>  -10.0012    1.0000 </r>
       <r>   -9.6548    1.0000 </r>
       <r>   -9.6474    1.0000 </r>
       <r>   -9.6097    1.0000 </r>
       <r>   -9.5975    1.0000 </r>
       <r>   -9.5150    1.0000 </r>
       <r>   -9.4984    1.0000 </r>
       <r>   -9.4386    1.0000 </r>
       <r>   -9.4220    1.0000 </r>
       <r>   -9.4133    1.0000 </r>
       <r>   -9.2286    1.0000 </r>
       <r>   -9.2280    1.0000 </r>
       <r>   -8.4432    1.0000 </r>
       <r>   -7.8281    1.0000 </r>
       <r>   -7.7384    1.0000 </r>
       <r>   -7.6950    1.0000 </r>
       <r>   -7.5896    1.0000 </r>
       <r>   -7.5847    1.0000 </r>
       <r>   -7.5777    1.0000 </r>
       <r>   -7.4541    1.0000 </r>
       <r>   -7.4541    1.0000 </r>
       <r>   -7.4000    1.0000 </r>
       <r>   -7.3962    1.0000 </r>
       <r>   -7.3937    1.0000 </r>
       <r>   -7.3913    1.0000 </r>
       <r>   -7.0946    1.0000 </r>
       <r>   -6.7715    1.0000 </r>
       <r>   -6.6900    1.0000 </r>
       <r>   -6.3009    1.0000 </r>
       <r>   -6.2397    1.0000 </r>
       <r>   -6.1653    1.0000 </r>
       <r>   -5.9747    1.0000 </r>
       <r>   -5.9238    1.0000 </r>
       <r>   -5.9032    1.0000 </r>
       <r>   -5.8831    1.0000 </r>
       <r>   -5.8714    1.0000 </r>
       <r>   -5.8630    1.0000 </r>
       <r>   -5.8215    1.0000 </r>
       <r>   -5.8053    1.0000 </r>
       <r>   -5.6622    1.0000 </r>
       <r>   -5.5560    1.0000 </r>
       <r>   -5.3808    1.0000 </r>
       <r>   -5.2800    1.0000 </r>
       <r>   -5.2541    1.0000 </r>
       <r>   -5.0969    1.0000 </r>
       <r>   -5.0384    1.0000 </r>
       <r>   -4.9971    1.0000 </r>
       <r>   -4.9912    1.0000 </r>
       <r>   -4.9855    1.0000 </r>
       <r>   -4.8892    1.0000 </r>
       <r>   -4.6959    1.0000 </r>
       <r>   -4.6262    1.0000 </r>
       <r>   -4.5922    1.0000 </r>
       <r>   -4.5265    1.0000 </r>
       <r>   -4.4765    1.0000 </r>
       <r>   -4.3539    1.0000 </r>
       <r>   -4.3350    1.0000 </r>
       <r>   -4.2857    1.0000 </r>
       <r>   -4.2330    1.0000 </r>
       <r>   -4.2120    1.0000 </r>
       <r>   -4.1353    1.0000 </r>
       <r>   -4.0994    1.0000 </r>
       <r>   -4.0081    1.0000 </r>
       <r>   -3.9364    1.0000 </r>
       <r>   -3.9261    1.0000 </r>
       <r>   -3.8868    1.0000 </r>
       <r>   -3.8518    1.0000 </r>
       <r>   -3.8398    1.0000 </r>
       <r>   -3.5853    1.0000 </r>
       <r>   -3.5487    1.0000 </r>
       <r>   -3.5306    1.0000 </r>
       <r>   -3.4096    1.0000 </r>
       <r>   -3.2226    1.0000 </r>
       <r>   -2.9698    1.0000 </r>
       <r>   -2.9578    1.0000 </r>
       <r>   -2.8732    1.0000 </r>
       <r>   -2.8369    1.0000 </r>
       <r>   -2.8149    1.0000 </r>
       <r>   -2.7931    1.0000 </r>
       <r>   -2.7816    1.0000 </r>
       <r>   -2.7689    1.0000 </r>
       <r>   -2.7124    1.0000 </r>
       <r>   -2.6949    1.0000 </r>
       <r>   -2.6456    1.0000 </r>
       <r>   -2.6285    1.0000 </r>
       <r>   -2.5921    1.0000 </r>
       <r>   -2.2987    1.0000 </r>
       <r>   -2.2192    1.0000 </r>
       <r>   -2.1091    1.0000 </r>
       <r>   -1.9411    1.0000 </r>
       <r>   -1.9148    1.0000 </r>
       <r>   -1.9032    1.0000 </r>
       <r>   -1.8959    1.0000 </r>
       <r>   -1.7916    1.0000 </r>
       <r>   -1.7585    1.0000 </r>
       <r>   -1.6828    1.0000 </r>
       <r>   -1.6618    1.0000 </r>
       <r>   -1.6500    1.0000 </r>
       <r>   -1.6463    1.0000 </r>
       <r>   -1.6303    1.0000 </r>
       <r>   -1.6245    1.0000 </r>
       <r>   -1.6183    1.0000 </r>
       <r>   -1.5532    1.0000 </r>
       <r>   -1.5456    1.0000 </r>
       <r>   -1.5225    1.0000 </r>
       <r>   -1.3761    1.0000 </r>
       <r>   -1.3140    1.0000 </r>
       <r>   -1.2958    1.0000 </r>
       <r>   -1.1424    1.0000 </r>
       <r>   -1.1197    1.0000 </r>
       <r>   -1.0867    1.0000 </r>
       <r>   -1.0059    1.0000 </r>
       <r>   -0.9637    1.0000 </r>
       <r>   -0.9544    1.0000 </r>
       <r>   -0.9112    1.0000 </r>
       <r>   -0.8950    1.0000 </r>
       <r>   -0.8887    1.0000 </r>
       <r>   -0.8637    1.0000 </r>
       <r>   -0.8575    1.0000 </r>
       <r>   -0.8463    1.0000 </r>
       <r>   -0.6702    1.0000 </r>
       <r>   -0.6585    1.0000 </r>
       <r>   -0.5536    1.0000 </r>
       <r>   -0.5297    1.0000 </r>
       <r>   -0.4805    1.0000 </r>
       <r>   -0.3622    1.0000 </r>
       <r>   -0.3184    1.0000 </r>
       <r>   -0.2884    1.0000 </r>
       <r>   -0.2425    1.0000 </r>
       <r>   -0.2159    1.0000 </r>
       <r>   -0.1857    1.0000 </r>
       <r>   -0.1597    1.0000 </r>
       <r>   -0.1518    1.0000 </r>
       <r>   -0.1286    1.0000 </r>
       <r>    0.0357    1.0000 </r>
       <r>    0.0675    1.0000 </r>
       <r>    0.1276    1.0000 </r>
       <r>    0.3271    1.0000 </r>
       <r>    0.3390    1.0000 </r>
       <r>    0.4377    1.0000 </r>
       <r>    0.4589    1.0000 </r>
       <r>    0.4706    1.0000 </r>
       <r>    0.5851    1.0000 </r>
       <r>    0.6806    1.0000 </r>
       <r>    0.7087    1.0000 </r>
       <r>    0.7105    1.0000 </r>
       <r>    0.8125    1.0000 </r>
       <r>    0.8715    1.0000 </r>
       <r>    0.8821    1.0000 </r>
       <r>    0.8982    1.0000 </r>
       <r>    0.9114    1.0000 </r>
       <r>    1.0378    1.0000 </r>
       <r>    1.0455    1.0000 </r>
       <r>    1.1103    1.0000 </r>
       <r>    1.1469    1.0000 </r>
       <r>    1.1512    1.0000 </r>
       <r>    1.1668    1.0000 </r>
       <r>    1.1742    1.0000 </r>
       <r>    1.2025    1.0000 </r>
       <r>    1.2215    1.0000 </r>
       <r>    1.2254    1.0000 </r>
       <r>    1.3582    1.0000 </r>
       <r>    1.3723    1.0000 </r>
       <r>    1.4707    1.0000 </r>
       <r>    1.5057    1.0000 </r>
       <r>    1.5374    1.0000 </r>
       <r>    1.5492    1.0000 </r>
       <r>    1.5883    1.0000 </r>
       <r>    1.7141    0.9991 </r>
       <r>    1.8062    0.9664 </r>
       <r>    1.8086    0.9638 </r>
       <r>    1.8104    0.9618 </r>
       <r>    1.8112    0.9608 </r>
       <r>    1.9145    0.6175 </r>
       <r>    1.9149    0.6156 </r>
       <r>    2.2175    0.0000 </r>
       <r>    2.4593    0.0000 </r>
       <r>    2.4619    0.0000 </r>
       <r>    2.5900    0.0000 </r>
       <r>    2.6071    0.0000 </r>
       <r>    2.8497    0.0000 </r>
       <r>    3.5215    0.0000 </r>
       <r>    3.5322    0.0000 </r>
       <r>    3.5325    0.0000 </r>
       <r>    3.5334    0.0000 </r>
       <r>    3.5356    0.0000 </r>
       <r>    3.5678    0.0000 </r>
       <r>    3.6020    0.0000 </r>
       <r>    3.6394    0.0000 </r>
       <r>    3.6757    0.0000 </r>
       <r>    3.7279    0.0000 </r>
       <r>    4.0100    0.0000 </r>
       <r>    4.0106    0.0000 </r>
       <r>    4.2653    0.0000 </r>
       <r>    4.3654    0.0000 </r>
       <r>    4.3668    0.0000 </r>
       <r>    4.4781    0.0000 </r>
       <r>    4.5148    0.0000 </r>
       <r>    4.5405    0.0000 </r>
       <r>    4.5733    0.0000 </r>
       <r>    4.6455    0.0000 </r>
       <r>    4.8285    0.0000 </r>
       <r>    4.8598    0.0000 </r>
       <r>    5.0239    0.0000 </r>
       <r>    5.0772    0.0000 </r>
       <r>    5.2172    0.0000 </r>
       <r>    5.3251    0.0000 </r>
       <r>    5.3363    0.0000 </r>
       <r>    5.5362    0.0000 </r>
       <r>    5.6310    0.0000 </r>
       <r>    5.7361    0.0000 </r>
       <r>    5.7552    0.0000 </r>
       <r>    5.8434    0.0000 </r>
       <r>    5.8538    0.0000 </r>
       <r>    5.9117    0.0000 </r>
       <r>    5.9799    0.0000 </r>
       <r>    6.0109    0.0000 </r>
       <r>    6.0326    0.0000 </r>
       <r>    6.1996    0.0000 </r>
       <r>    6.3536    0.0000 </r>
       <r>    6.7065    0.0000 </r>
      </set>
      <set comment="kpoint 2">
       <r>  -29.2999    1.0000 </r>
       <r>  -23.5830    1.0000 </r>
       <r>  -13.6336    1.0000 </r>
       <r>  -12.9343    1.0000 </r>
       <r>  -12.8311    1.0000 </r>
       <r>  -12.8153    1.0000 </r>
       <r>  -12.7765    1.0000 </r>
       <r>  -12.7559    1.0000 </r>
       <r>  -12.6235    1.0000 </r>
       <r>  -12.5622    1.0000 </r>
       <r>  -12.0809    1.0000 </r>
       <r>  -11.9629    1.0000 </r>
       <r>  -11.9043    1.0000 </r>
       <r>  -11.8007    1.0000 </r>
       <r>  -11.6924    1.0000 </r>
       <r>  -11.6113    1.0000 </r>
       <r>  -11.4496    1.0000 </r>
       <r>  -11.1750    1.0000 </r>
       <r>  -11.0737    1.0000 </r>
       <r>  -10.8446    1.0000 </r>
       <r>  -10.8260    1.0000 </r>
       <r>  -10.7955    1.0000 </r>
       <r>  -10.7601    1.0000 </r>
       <r>  -10.5625    1.0000 </r>
       <r>  -10.4778    1.0000 </r>
       <r>  -10.3265    1.0000 </r>
       <r>  -10.1964    1.0000 </r>
       <r>  -10.1412    1.0000 </r>
       <r>  -10.0155    1.0000 </r>
       <r>  -10.0057    1.0000 </r>
       <r>   -9.9480    1.0000 </r>
       <r>   -9.9351    1.0000 </r>
       <r>   -9.8053    1.0000 </r>
       <r>   -9.7383    1.0000 </r>
       <r>   -9.5463    1.0000 </r>
       <r>   -9.5242    1.0000 </r>
       <r>   -9.4326    1.0000 </r>
       <r>   -9.4168    1.0000 </r>
       <r>   -9.3808    1.0000 </r>
[...]
       <r>   -16.4456     0.0000     4.0000 </r>
       <r>   -16.3136     0.0000     4.0000 </r>
       <r>   -16.1815     0.0000     4.0000 </r>
       <r>   -16.0495     0.0000     4.0000 </r>
       <r>   -15.9175     0.0000     4.0000 </r>
       <r>   -15.7855     0.0000     4.0000 </r>
       <r>   -15.6534     0.0000     4.0000 </r>
       <r>   -15.5214     0.0000     4.0000 </r>
       <r>   -15.3894     0.0000     4.0000 </r>
       <r>   -15.2574     0.0000     4.0000 </r>
       <r>   -15.1254     0.0000     4.0000 </r>
       <r>   -14.9933     0.0000     4.0000 </r>
       <r>   -14.8613     0.0000     4.0000 </r>
       <r>   -14.7293     0.0000     4.0000 </r>
       <r>   -14.5973     0.0000     4.0000 </r>
       <r>   -14.4652     0.0000     4.0000 </r>
       <r>   -14.3332     0.0000     4.0000 </r>
       <r>   -14.2012     0.0000     4.0000 </r>
       <r>   -14.0692     0.0000     4.0000 </r>
       <r>   -13.9371     0.0015     4.0002 </r>
       <r>   -13.8051     0.1762     4.0235 </r>
       <r>   -13.6731     1.9899     4.2862 </r>
       <r>   -13.5411     5.2746     4.9826 </r>
       <r>   -13.4091     4.4115     5.5650 </r>
       <r>   -13.2770     4.8541     6.2058 </r>
       <r>   -13.1450     7.3857     7.1809 </r>
       <r>   -13.0130     3.1665     7.5990 </r>
       <r>   -12.8810    13.2936     9.3540 </r>
       <r>   -12.7489    37.6361    14.3229 </r>
       <r>   -12.6169    19.5424    16.9029 </r>
       <r>   -12.4849    10.0668    18.2320 </r>
       <r>   -12.3529    12.9048    19.9357 </r>
       <r>   -12.2208    12.4079    21.5739 </r>
       <r>   -12.0888     6.1855    22.3905 </r>
       <r>   -11.9568    11.1380    23.8610 </r>
       <r>   -11.8248    14.5967    25.7881 </r>
       <r>   -11.6927     9.5515    27.0491 </r>
       <r>   -11.5607    13.3496    28.8116 </r>
       <r>   -11.4287    17.7106    31.1498 </r>
       <r>   -11.2967    14.8609    33.1118 </r>
       <r>   -11.1647    15.5523    35.1650 </r>
       <r>   -11.0326    20.4149    37.8603 </r>
       <r>   -10.9006    15.2462    39.8731 </r>
       <r>   -10.7686    22.0660    42.7864 </r>
       <r>   -10.6366    26.7195    46.3140 </r>
       <r>   -10.5045    17.6430    48.6432 </r>
       <r>   -10.3725    20.8411    51.3948 </r>
       <r>   -10.2405    23.0550    54.4386 </r>
       <r>   -10.1085    20.5214    57.1479 </r>
       <r>    -9.9764    32.7206    61.4678 </r>
       <r>    -9.8444    24.5274    64.7060 </r>
       <r>    -9.7124    17.7015    67.0430 </r>
       <r>    -9.5804    20.1219    69.6995 </r>
       <r>    -9.4483    24.9244    72.9901 </r>
       <r>    -9.3163    28.2453    76.7192 </r>
       <r>    -9.1843    25.5639    80.0942 </r>
       <r>    -9.0523    13.0644    81.8190 </r>
       <r>    -8.9203     1.3606    81.9987 </r>
       <r>    -8.7882     0.0102    82.0000 </r>
       <r>    -8.6562     0.0018    82.0002 </r>
       <r>    -8.5242     0.2266    82.0302 </r>
       <r>    -8.3922     2.8936    82.4122 </r>
       <r>    -8.2601     6.6562    83.2909 </r>
       <r>    -8.1281     7.0276    84.2188 </r>
       <r>    -7.9961     8.6817    85.3649 </r>
       <r>    -7.8641     8.4701    86.4832 </r>
       <r>    -7.7320    11.5678    88.0104 </r>
       <r>    -7.6000    22.2178    90.9437 </r>
       <r>    -7.4680    49.5527    97.4858 </r>
       <r>    -7.3360    61.6393   105.6237 </r>
       <r>    -7.2039    22.0657   108.5368 </r>
       <r>    -7.0719     9.4919   109.7900 </r>
       <r>    -6.9399     7.0096   110.7154 </r>
       <r>    -6.8079     9.1033   111.9173 </r>
       <r>    -6.6759     9.7589   113.2057 </r>
       <r>    -6.5438    13.1177   114.9375 </r>
       <r>    -6.4118    11.4669   116.4514 </r>
       <r>    -6.2798    15.6560   118.5184 </r>
       <r>    -6.1478    24.4220   121.7426 </r>
       <r>    -6.0157    23.9678   124.9070 </r>
       <r>    -5.8837    23.8538   128.0562 </r>
       <r>    -5.7517    27.1338   131.6385 </r>
       <r>    -5.6197    25.2573   134.9731 </r>
       <r>    -5.4876    28.6342   138.7535 </r>
       <r>    -5.3556    24.7685   142.0235 </r>
       <r>    -5.2236    18.9591   144.5265 </r>
       <r>    -5.0916    18.9377   147.0268 </r>
       <r>    -4.9595    26.7615   150.5599 </r>
       <r>    -4.8275    34.5617   155.1229 </r>
       <r>    -4.6955    39.4727   160.3342 </r>
       <r>    -4.5635    37.0217   165.2219 </r>
       <r>    -4.4315    35.7026   169.9355 </r>
       <r>    -4.2994    36.7005   174.7808 </r>
       <r>    -4.1674    31.2666   178.9087 </r>
       <r>    -4.0354    25.8827   182.3259 </r>
       <r>    -3.9034    25.8900   185.7439 </r>
       <r>    -3.7713    24.6390   188.9969 </r>
       <r>    -3.6393    19.3958   191.5576 </r>
       <r>    -3.5073    23.2395   194.6257 </r>
       <r>    -3.3753    18.2037   197.0290 </r>
       <r>    -3.2432    15.5015   199.0756 </r>
       <r>    -3.1112    16.9714   201.3162 </r>
       <r>    -2.9792    21.0113   204.0902 </r>
       <r>    -2.8472    37.0334   208.9795 </r>
       <r>    -2.7152    50.1135   215.5957 </r>
       <r>    -2.5831    53.3182   222.6349 </r>
       <r>    -2.4511    45.3755   228.6255 </r>
       <r>    -2.3191    40.1246   233.9229 </r>
       <r>    -2.1871    26.7867   237.4594 </r>
       <r>    -2.0550    23.2308   240.5264 </r>
       <r>    -1.9230    34.2276   245.0453 </r>
       <r>    -1.7910    37.2805   249.9672 </r>
       <r>    -1.6590    44.4283   255.8327 </r>
       <r>    -1.5269    45.9621   261.9008 </r>
       <r>    -1.3949    40.0026   267.1821 </r>
       <r>    -1.2629    40.1314   272.4804 </r>
       <r>    -1.1309    44.9497   278.4148 </r>
       <r>    -0.9988    50.7622   285.1166 </r>
       <r>    -0.8668    52.2835   292.0193 </r>
       <r>    -0.7348    42.4730   297.6267 </r>
       <r>    -0.6028    39.8615   302.8893 </r>
       <r>    -0.4708    35.4524   307.5699 </r>
       <r>    -0.3387    39.8086   312.8256 </r>
       <r>    -0.2067    50.8696   319.5415 </r>
       <r>    -0.0747    52.1824   326.4308 </r>
       <r>     0.0573    42.2568   332.0097 </r>
       <r>     0.1894    42.7495   337.6537 </r>
       <r>     0.3214    28.4878   341.4147 </r>
       <r>     0.4534    24.1392   344.6017 </r>
       <r>     0.5854    25.0873   347.9138 </r>
       <r>     0.7175    24.3866   351.1334 </r>
       <r>     0.8495    37.8319   356.1281 </r>
       <r>     0.9815    44.9690   362.0650 </r>
       <r>     1.1135    52.7965   369.0354 </r>
       <r>     1.2456    48.5531   375.4456 </r>
       <r>     1.3776    43.5061   381.1894 </r>
       <r>     1.5096    33.9530   385.6720 </r>
       <r>     1.6416    43.8197   391.4572 </r>
       <r>     1.7736    36.6461   396.2954 </r>
       <r>     1.9057    22.7517   399.2991 </r>
       <r>     2.0377    23.0153   402.3377 </r>
       <r>     2.1697    17.1282   404.5990 </r>
       <r>     2.3017    18.7691   407.0770 </r>
       <r>     2.4338    21.7032   409.9423 </r>
       <r>     2.5658    18.9417   412.4430 </r>
       <r>     2.6978    14.6542   414.3777 </r>
       <r>     2.8298    10.7916   415.8025 </r>
       <r>     2.9619    20.0043   418.4435 </r>
       <r>     3.0939    19.9313   421.0749 </r>
       <r>     3.2259    15.0461   423.0614 </r>
       <r>     3.3579    17.2212   425.3350 </r>
       <r>     3.4900    25.0215   428.6384 </r>
       <r>     3.6220    27.9192   432.3244 </r>
       <r>     3.7540    29.4662   436.2146 </r>
       <r>     3.8860    29.4826   440.1070 </r>
       <r>     4.0180    33.0072   444.4647 </r>
       <r>     4.1501    24.4262   447.6895 </r>
       <r>     4.2821    24.2722   450.8940 </r>
       <r>     4.4141    22.1348   453.8164 </r>
       <r>     4.5461    20.2842   456.4944 </r>
       <r>     4.6782    18.8295   458.9803 </r>
       <r>     4.8102    11.4437   460.4911 </r>
       <r>     4.9422    15.6361   462.5555 </r>
       <r>     5.0742    16.6440   464.7528 </r>
       <r>     5.2063    22.8660   467.7717 </r>
       <r>     5.3383    22.8118   470.7834 </r>
       <r>     5.4703    23.3254   473.8629 </r>
       <r>     5.6023    26.4896   477.3601 </r>
       <r>     5.7343    27.5074   480.9918 </r>
       <r>     5.8664    27.2704   484.5921 </r>
       <r>     5.9984    23.2497   487.6616 </r>
       <r>     6.1304    24.4976   490.8959 </r>
       <r>     6.2624    22.1921   493.8258 </r>
       <r>     6.3945    21.1817   496.6222 </r>
       <r>     6.5265    16.0265   498.7381 </r>
       <r>     6.6585     7.6709   499.7508 </r>
       <r>     6.7905     1.7273   499.9789 </r>
       <r>     6.9226     0.1585   499.9998 </r>
       <r>     7.0546     0.0014   500.0000 </r>
       <r>     7.1866     0.0000   500.0000 </r>
       <r>     7.3186     0.0000   500.0000 </r>
       <r>     7.4507     0.0000   500.0000 </r>
       <r>     7.5827     0.0000   500.0000 </r>
       <r>     7.7147     0.0000   500.0000 </r>
       <r>     7.8467     0.0000   500.0000 </r>
       <r>     7.9787     0.0000   500.0000 </r>
       <r>     8.1108     0.0000   500.0000 </r>
       <r>     8.2428     0.0000   500.0000 </r>
       <r>     8.3748     0.0000   500.0000 </r>
       <r>     8.5068     0.0000   500.0000 </r>
      </set>
     </set>
    </array>
   </total>
  </dos>
 </calculation>
 <structure name="finalpos" >
  <crystal>
   <varray name="basis" >
    <v>       9.28425000       0.00000000       0.00000000 </v>
    <v>       0.00000000      10.72053000       0.00000000 </v>
    <v>       0.00000000       0.00000000      19.49580000 </v>
   </varray>
   <i name="volume">   1940.45753799 </i>
   <varray name="rec_basis" >
    <v>       0.10770929       0.00000000       0.00000000 </v>
    <v>       0.00000000       0.09327897       0.00000000 </v>
    <v>       0.00000000       0.00000000       0.05129310 </v>
   </varray>
  </crystal>
  <varray name="positions" >
   <v>       0.00000000       0.00000000       0.00000000 </v>
   <v>       0.16666700       0.25000000       0.00000000 </v>
   <v>       0.00000000       0.00000000       0.38944500 </v>
   <v>       0.16666700       0.25000000       0.38944500 </v>
   <v>       0.00000000       0.16666600       0.13018000 </v>
   <v>       0.16666700       0.41666600       0.13018000 </v>
   <v>       0.00000000       0.33333400       0.25985200 </v>
   <v>       0.16666700       0.08333300       0.25985200 </v>
   <v>       0.33333300       0.00000000       0.00000000 </v>
   <v>       0.50000000       0.25000000       0.00000000 </v>
   <v>       0.33333300       0.00000000       0.38944500 </v>
   <v>       0.50000000       0.25000000       0.38944500 </v>
   <v>       0.33333300       0.16666600       0.13018000 </v>
   <v>       0.50000000       0.41666600       0.13018000 </v>
   <v>       0.33333300       0.33333400       0.25985200 </v>
   <v>       0.50000000       0.08333300       0.25985200 </v>
   <v>       0.66666700       0.00000000       0.00000000 </v>
   <v>       0.83333300       0.25000000       0.00000000 </v>
   <v>       0.66666700       0.00000000       0.38944500 </v>
   <v>       0.83333300       0.25000000       0.38944500 </v>
   <v>       0.66666700       0.16666600       0.13018000 </v>
   <v>       0.83333300       0.41666600       0.13018000 </v>
   <v>       0.66666700       0.33333400       0.25985200 </v>
   <v>       0.83333300       0.08333400       0.25985200 </v>
   <v>       0.00000000       0.50000000       0.00000000 </v>
   <v>       0.16666700       0.75000000       0.00000000 </v>
   <v>       0.00000000       0.50000000       0.38944500 </v>
   <v>       0.16666700       0.75000000       0.38944500 </v>
   <v>       0.00000000       0.66666600       0.13018000 </v>
   <v>       0.16666700       0.91666600       0.13018000 </v>
   <v>       0.00000000       0.83333400       0.25985200 </v>
   <v>       0.16666700       0.58333400       0.25985200 </v>
   <v>       0.33333300       0.50000000       0.00000000 </v>
   <v>       0.50000000       0.75000000       0.00000000 </v>
   <v>       0.33333300       0.50000000       0.38944500 </v>
   <v>       0.50000000       0.75000000       0.38944500 </v>
   <v>       0.33333300       0.66666600       0.13018000 </v>
   <v>       0.50000000       0.91666700       0.13018000 </v>
   <v>       0.33333300       0.83333400       0.25985200 </v>
   <v>       0.50000000       0.58333400       0.25985200 </v>
   <v>       0.66666700       0.50000000       0.00000000 </v>
   <v>       0.83333300       0.75000000       0.00000000 </v>
   <v>       0.66666700       0.50000000       0.38944500 </v>
   <v>       0.83333300       0.75000000       0.38944500 </v>
   <v>       0.66666700       0.66666600       0.13018000 </v>
   <v>       0.83333300       0.91666700       0.13018000 </v>
   <v>       0.66666700       0.83333400       0.25985200 </v>
   <v>       0.83333300       0.58333400       0.25985200 </v>
   <v>       0.17052245       0.73465524       0.55027669 </v>
   <v>       0.00000000       0.00000000       0.09762400 </v>
   <v>       0.16666700       0.25000000       0.09762400 </v>
   <v>       0.97511793       0.98901429       0.48648783 </v>
   <v>       0.16260250       0.25484113       0.48613971 </v>
   <v>       0.00000000       0.16666600       0.22753200 </v>
   <v>       0.16666700       0.41666600       0.22753200 </v>
   <v>       0.00000000       0.33333400       0.35720700 </v>
   <v>       0.16666700       0.08333300       0.35720700 </v>
   <v>       0.33333300       0.00000000       0.09762400 </v>
   <v>       0.50000000       0.25000000       0.09762400 </v>
   <v>       0.35435983       0.99192883       0.48616795 </v>
   <v>       0.49111730       0.25150766       0.48687946 </v>
   <v>       0.33333300       0.16666600       0.22753200 </v>
   <v>       0.50000000       0.41666600       0.22753200 </v>
   <v>       0.33333300       0.33333400       0.35720700 </v>
   <v>       0.50000000       0.08333300       0.35720700 </v>
   <v>       0.66666700       0.00000000       0.09762400 </v>
   <v>       0.83333300       0.25000000       0.09762400 </v>
   <v>       0.66818743       0.98573714       0.48641147 </v>
   <v>       0.84164505       0.25722048       0.48691708 </v>
   <v>       0.66666700       0.16666600       0.22753200 </v>
   <v>       0.83333300       0.41666600       0.22753200 </v>
   <v>       0.66666700       0.33333400       0.35720700 </v>
   <v>       0.83333300       0.08333400       0.35720700 </v>
   <v>       0.00000000       0.50000000       0.09762400 </v>
   <v>       0.16666700       0.75000000       0.09762400 </v>
   <v>       0.99139481       0.47520039       0.48627740 </v>
   <v>       0.16476634       0.82715715       0.48214301 </v>
   <v>       0.00000000       0.66666600       0.22753200 </v>
   <v>       0.16666700       0.91666600       0.22753200 </v>
   <v>       0.00000000       0.83333400       0.35720700 </v>
   <v>       0.16666700       0.58333400       0.35720700 </v>
   <v>       0.33333300       0.50000000       0.09762400 </v>
   <v>       0.50000000       0.75000000       0.09762400 </v>
   <v>       0.33215624       0.46886243       0.48699765 </v>
   <v>       0.52308381       0.76549790       0.48678018 </v>
   <v>       0.33333300       0.66666600       0.22753200 </v>
   <v>       0.50000000       0.91666700       0.22753200 </v>
   <v>       0.33333300       0.83333400       0.35720700 </v>
   <v>       0.50000000       0.58333400       0.35720700 </v>
   <v>       0.66666700       0.50000000       0.09762400 </v>
   <v>       0.83333300       0.75000000       0.09762400 </v>
   <v>       0.68022716       0.50226767       0.48692617 </v>
   <v>       0.81239903       0.75787088       0.48609823 </v>
   <v>       0.66666700       0.66666600       0.22753200 </v>
   <v>       0.83333300       0.91666700       0.22753200 </v>
   <v>       0.66666700       0.83333400       0.35720700 </v>
   <v>       0.83333300       0.58333400       0.35720700 </v>
   <v>       0.36277300       0.64242376       0.63823878 </v>
  </varray>
  <varray name="selective"  type="logical" >
   <v type="logical" >  F  F  F </v>
   <v type="logical" >  F  F  F </v>
   <v type="logical" >  F  F  F </v>
   <v type="logical" >  F  F  F </v>
   <v type="logical" >  F  F  F </v>
   <v type="logical" >  F  F  F </v>
   <v type="logical" >  F  F  F </v>
   <v type="logical" >  F  F  F </v>
   <v type="logical" >  F  F  F </v>
   <v type="logical" >  F  F  F </v>
   <v type="logical" >  F  F  F </v>
   <v type="logical" >  F  F  F </v>
   <v type="logical" >  F  F  F </v>
   <v type="logical" >  F  F  F </v>
   <v type="logical" >  F  F  F </v>
   <v type="logical" >  F  F  F </v>
   <v type="logical" >  F  F  F </v>
   <v type="logical" >  F  F  F </v>
   <v type="logical" >  F  F  F </v>
   <v type="logical" >  F  F  F </v>
   <v type="logical" >  F  F  F </v>
   <v type="logical" >  F  F  F </v>
   <v type="logical" >  F  F  F </v>
   <v type="logical" >  F  F  F </v>
   <v type="logical" >  F  F  F </v>
   <v type="logical" >  F  F  F </v>
   <v type="logical" >  F  F  F </v>
   <v type="logical" >  F  F  F </v>
   <v type="logical" >  F  F  F </v>
   <v type="logical" >  F  F  F </v>
   <v type="logical" >  F  F  F </v>
   <v type="logical" >  F  F  F </v>
   <v type="logical" >  F  F  F </v>
   <v type="logical" >  F  F  F </v>
   <v type="logical" >  F  F  F </v>
   <v type="logical" >  F  F  F </v>
   <v type="logical" >  F  F  F </v>
   <v type="logical" >  F  F  F </v>
   <v type="logical" >  F  F  F </v>
   <v type="logical" >  F  F  F </v>
   <v type="logical" >  F  F  F </v>
   <v type="logical" >  F  F  F </v>
   <v type="logical" >  F  F  F </v>
   <v type="logical" >  F  F  F </v>
   <v type="logical" >  F  F  F </v>
   <v type="logical" >  F  F  F </v>
   <v type="logical" >  F  F  F </v>
   <v type="logical" >  F  F  F </v>
   <v type="logical" >  T  T  T </v>
   <v type="logical" >  F  F  F </v>
   <v type="logical" >  F  F  F </v>
   <v type="logical" >  T  T  T </v>
   <v type="logical" >  T  T  T </v>
   <v type="logical" >  F  F  F </v>
   <v type="logical" >  F  F  F </v>
   <v type="logical" >  F  F  F </v>
   <v type="logical" >  F  F  F </v>
   <v type="logical" >  F  F  F </v>
   <v type="logical" >  F  F  F </v>
   <v type="logical" >  T  T  T </v>
   <v type="logical" >  T  T  T </v>
   <v type="logical" >  F  F  F </v>
   <v type="logical" >  F  F  F </v>
   <v type="logical" >  F  F  F </v>
   <v type="logical" >  F  F  F </v>
   <v type="logical" >  F  F  F </v>
   <v type="logical" >  F  F  F </v>
   <v type="logical" >  T  T  T </v>
   <v type="logical" >  T  T  T </v>
   <v type="logical" >  F  F  F </v>
   <v type="logical" >  F  F  F </v>
   <v type="logical" >  F  F  F </v>
   <v type="logical" >  F  F  F </v>
   <v type="logical" >  F  F  F </v>
   <v type="logical" >  F  F  F </v>
   <v type="logical" >  T  T  T </v>
   <v type="logical" >  T  T  T </v>
   <v type="logical" >  F  F  F </v>
   <v type="logical" >  F  F  F </v>
   <v type="logical" >  F  F  F </v>
   <v type="logical" >  F  F  F </v>
   <v type="logical" >  F  F  F </v>
   <v type="logical" >  F  F  F </v>
   <v type="logical" >  T  T  T </v>
   <v type="logical" >  T  T  T </v>
   <v type="logical" >  F  F  F </v>
   <v type="logical" >  F  F  F </v>
   <v type="logical" >  F  F  F </v>
   <v type="logical" >  F  F  F </v>
   <v type="logical" >  F  F  F </v>
   <v type="logical" >  F  F  F </v>
   <v type="logical" >  T  T  T </v>
   <v type="logical" >  T  T  T </v>
   <v type="logical" >  F  F  F </v>
   <v type="logical" >  F  F  F </v>
   <v type="logical" >  F  F  F </v>
   <v type="logical" >  F  F  F </v>
   <v type="logical" >  T  T  T </v>
  </varray>
  <nose>
   <v>      -3.00000000       0.00000000       0.00010000       0.00010000 </v>
  </nose>
 </structure>
</modeling>
