ni3al                                   
           1
     9.284250    0.000000    0.000000
     0.000000   10.720530    0.000000
     0.000000    0.000000   19.495800
   C    F    Si   K 
    48     1    48     1
Direct configuration=     1
   0.00000000  0.00000000  0.00000000
   0.16666700  0.25000000  0.00000000
   0.00000000  0.00000000  0.38944500
   0.16666700  0.25000000  0.38944500
   0.00000000  0.16666600  0.13018000
   0.16666700  0.41666600  0.13018000
   0.00000000  0.33333400  0.25985200
   0.16666700  0.08333300  0.25985200
   0.33333300  0.00000000  0.00000000
   0.50000000  0.25000000  0.00000000
   0.33333300  0.00000000  0.38944500
   0.50000000  0.25000000  0.38944500
   0.33333300  0.16666600  0.13018000
   0.50000000  0.41666600  0.13018000
   0.33333300  0.33333400  0.25985200
   0.50000000  0.08333300  0.25985200
   0.66666700  0.00000000  0.00000000
   0.83333300  0.25000000  0.00000000
   0.66666700  0.00000000  0.38944500
   0.83333300  0.25000000  0.38944500
   0.66666700  0.16666600  0.13018000
   0.83333300  0.41666600  0.13018000
   0.66666700  0.33333400  0.25985200
   0.83333300  0.08333400  0.25985200
   0.00000000  0.50000000  0.00000000
   0.16666700  0.75000000  0.00000000
   0.00000000  0.50000000  0.38944500
   0.16666700  0.75000000  0.38944500
   0.00000000  0.66666600  0.13018000
   0.16666700  0.91666600  0.13018000
   0.00000000  0.83333400  0.25985200
   0.16666700  0.58333400  0.25985200
   0.33333300  0.50000000  0.00000000
   0.50000000  0.75000000  0.00000000
   0.33333300  0.50000000  0.38944500
   0.50000000  0.75000000  0.38944500
   0.33333300  0.66666600  0.13018000
   0.50000000  0.91666700  0.13018000
   0.33333300  0.83333400  0.25985200
   0.50000000  0.58333400  0.25985200
   0.66666700  0.50000000  0.00000000
   0.83333300  0.75000000  0.00000000
   0.66666700  0.50000000  0.38944500
   0.83333300  0.75000000  0.38944500
   0.66666700  0.66666600  0.13018000
   0.83333300  0.91666700  0.13018000
   0.66666700  0.83333400  0.25985200
   0.83333300  0.58333400  0.25985200
   0.17052245  0.73465524  0.55027669
   0.00000000  0.00000000  0.09762400
   0.16666700  0.25000000  0.09762400
   0.97511793  0.98901429  0.48648783
   0.16260250  0.25484113  0.48613971
   0.00000000  0.16666600  0.22753200
   0.16666700  0.41666600  0.22753200
   0.00000000  0.33333400  0.35720700
   0.16666700  0.08333300  0.35720700
   0.33333300  0.00000000  0.09762400
   0.50000000  0.25000000  0.09762400
   0.35435983  0.99192883  0.48616795
   0.49111730  0.25150766  0.48687946
   0.33333300  0.16666600  0.22753200
   0.50000000  0.41666600  0.22753200
   0.33333300  0.33333400  0.35720700
   0.50000000  0.08333300  0.35720700
   0.66666700  0.00000000  0.09762400
   0.83333300  0.25000000  0.09762400
   0.66818743  0.98573714  0.48641147
   0.84164505  0.25722048  0.48691708
   0.66666700  0.16666600  0.22753200
   0.83333300  0.41666600  0.22753200
   0.66666700  0.33333400  0.35720700
   0.83333300  0.08333400  0.35720700
   0.00000000  0.50000000  0.09762400
   0.16666700  0.75000000  0.09762400
   0.99139481  0.47520039  0.48627740
   0.16476634  0.82715715  0.48214301
   0.00000000  0.66666600  0.22753200
   0.16666700  0.91666600  0.22753200
   0.00000000  0.83333400  0.35720700
   0.16666700  0.58333400  0.35720700
   0.33333300  0.50000000  0.09762400
   0.50000000  0.75000000  0.09762400
   0.33215624  0.46886243  0.48699765
   0.52308381  0.76549790  0.48678018
   0.33333300  0.66666600  0.22753200
   0.50000000  0.91666700  0.22753200
   0.33333300  0.83333400  0.35720700
   0.50000000  0.58333400  0.35720700
   0.66666700  0.50000000  0.09762400
   0.83333300  0.75000000  0.09762400
   0.68022716  0.50226767  0.48692617
   0.81239903  0.75787088  0.48609823
   0.66666700  0.66666600  0.22753200
   0.83333300  0.91666700  0.22753200
   0.66666700  0.83333400  0.35720700
   0.83333300  0.58333400  0.35720700
   0.36277300  0.64242376  0.63823878
