   98   98  300    1
  0.1851224E+02  0.9284262E-09  0.1072054E-08  0.1822724E-08  0.5000000E-15
  1.000000000000000E-004
  CAR 
 ni3al                                   
    400      7    250
 
  0.0000000E+00  0.0000000E+00  0.0000000E+00  0.8333333E-01
      1        -27.855603   1.000000
      2        -21.980409   1.000000
      3        -12.994391   1.000000
      4        -12.163404   1.000000
      5        -11.955839   1.000000
      6        -11.954800   1.000000
      7        -11.620880   1.000000
      8        -11.620438   1.000000
      9        -11.412044   1.000000
     10        -11.397076   1.000000
     11        -11.375642   1.000000
     12        -11.146336   1.000000
     13        -11.144839   1.000000
     14        -11.093162   1.000000
     15        -10.826375   1.000000
     16        -10.810482   1.000000
     17        -10.685294   1.000000
     18        -10.684804   1.000000
     19        -10.681938   1.000000
     20        -10.681371   1.000000
     21        -10.153625   1.000000
     22        -10.130087   1.000000
     23         -9.954710   1.000000
     24         -9.941284   1.000000
     25         -9.932500   1.000000
     26         -9.919594   1.000000
     27         -9.849713   1.000000
     28         -9.817685   1.000000
     29         -9.754520   1.000000
     30         -9.601391   1.000000
     31         -9.272436   1.000000
     32         -9.125849   1.000000
     33         -9.074234   1.000000
     34         -9.061081   1.000000
     35         -9.053485   1.000000
     36         -9.012996   1.000000
     37         -9.012590   1.000000
     38         -8.771254   1.000000
     39         -8.683081   1.000000
     40         -8.681441   1.000000
     41         -8.673193   1.000000
     42         -8.631699   1.000000
     43         -8.410760   1.000000
     44         -8.336503   1.000000
     45         -8.221981   1.000000
     46         -8.220118   1.000000
     47         -7.935867   1.000000
     48         -7.702655   1.000000
     49         -7.680155   1.000000
     50         -7.672347   1.000000
     51         -7.551003   1.000000
     52         -7.347532   1.000000
     53         -7.186390   1.000000
     54         -6.080052   1.000000
     55         -5.530521   1.000000
     56         -5.474282   1.000000
     57         -5.421126   1.000000
     58         -5.421037   1.000000
     59         -5.267425   1.000000
     60         -5.258117   1.000000
     61         -5.257018   1.000000
     62         -5.255766   1.000000
     63         -5.161930   1.000000
     64         -5.126860   1.000000
     65         -5.126227   1.000000
     66         -4.953867   1.000000
     67         -4.888787   1.000000
     68         -4.866789   1.000000
     69         -4.855925   1.000000
     70         -4.836065   1.000000
     71         -4.728347   1.000000
     72         -4.670176   1.000000
     73         -4.597491   1.000000
     74         -4.556921   1.000000
     75         -4.444897   1.000000
     76         -4.342021   1.000000
     77         -4.282063   1.000000
     78         -4.272322   1.000000
     79         -4.089547   1.000000
     80         -4.074759   1.000000
     81         -4.061944   1.000000
     82         -4.047275   1.000000
     83         -4.001461   1.000000
     84         -3.448955   1.000000
     85         -3.378555   1.000000
     86         -3.366240   1.000000
     87         -3.359890   1.000000
     88         -3.359235   1.000000
     89         -3.331621   1.000000
     90         -3.202708   1.000000
     91         -3.189982   1.000000
     92         -3.175851   1.000000
     93         -3.116024   1.000000
     94         -3.070583   1.000000
     95         -2.983572   1.000000
     96         -2.920575   1.000000
     97         -2.901033   1.000000
     98         -2.877174   1.000000
     99         -2.703587   1.000000
    100         -2.643957   1.000000
    101         -2.566819   1.000000
    102         -2.545240   1.000000
    103         -2.423905   1.000000
    104         -2.419683   1.000000
    105         -2.368066   1.000000
    106         -2.338947   1.000000
    107         -2.314978   1.000000
    108         -2.249350   1.000000
    109         -2.211383   1.000000
    110         -2.144681   1.000000
    111         -2.078574   1.000000
    112         -2.055816   1.000000
    113         -1.825836   1.000000
    114         -1.720147   1.000000
    115         -1.712059   1.000000
    116         -1.545545   1.000000
    117         -1.502220   1.000000
    118         -1.377660   1.000000
    119         -1.284785   1.000000
    120         -1.282842   1.000000
    121         -1.281199   1.000000
    122         -1.264496   1.000000
    123         -1.227619   1.000000
    124         -1.178834   1.000000
    125         -1.167667   1.000000
    126         -1.123755   1.000000
    127         -1.094414   1.000000
    128         -1.088748   1.000000
    129         -1.068078   1.000000
    130         -0.988747   1.000000
    131         -0.968084   1.000000
    132         -0.914247   1.000000
    133         -0.906874   1.000000
    134         -0.840228   1.000000
    135         -0.826245   1.000000
    136         -0.681660   1.000000
    137         -0.656586   1.000000
    138         -0.612885   1.000000
    139         -0.598844   1.000000
    140         -0.595559   1.000000
    141         -0.583870   1.000000
    142         -0.568924   1.000000
    143         -0.546799   1.000000
    144         -0.444344   1.000000
    145         -0.324839   1.000000
    146         -0.286650   1.000000
    147         -0.270809   1.000000
    148         -0.200784   1.000000
    149         -0.200532   1.000000
    150         -0.109288   1.000000
    151         -0.101793   1.000000
    152         -0.084531   1.000000
    153         -0.072493   1.000000
    154         -0.042011   1.000000
    155         -0.029211   1.000000
    156          0.285139   1.000000
    157          0.296806   1.000000
    158          0.304178   1.000000
    159          0.321261   1.000000
    160          0.399258   1.000000
    161          0.417124   1.000000
    162          0.438365   1.000000
    163          0.451994   1.000000
    164          0.542260   1.000000
    165          0.547876   1.000000
    166          0.556122   1.000000
    167          0.575709   1.000000
    168          0.706732   1.000000
    169          0.734663   1.000000
    170          0.944995   1.000000
    171          0.945680   1.000000
    172          0.952550   1.000000
    173          0.964280   1.000000
    174          0.979622   1.000000
    175          0.982077   1.000000
    176          1.024716   1.000000
    177          1.043800   1.000000
    178          1.060854   1.000000
    179          1.103388   1.000000
    180          1.281245   1.000000
    181          1.416081   1.000000
    182          1.416847   1.000000
    183          1.777449   1.000000
    184          1.788638   1.000000
    185          1.874390   1.000000
    186          1.888793   1.000000
    187          2.391106   1.000000
    188          2.487310   1.000000
    189          2.556474   1.000000
    190          2.559681   1.000000
    191          2.776424   0.997958
    192          2.795187   0.995424
    193          2.806117   0.992892
    194          2.828264   0.983764
    195          2.856259   0.959301
    196          2.892490   0.890698
    197          2.922959   0.787956
    198          2.938159   0.720517
    199          2.938474   0.719021
    200          3.000259   0.384438
    201          3.006386   0.351789
    202          3.013112   0.317174
    203          3.028809   0.242713
    204          3.050397   0.157956
    205          3.056123   0.139211
    206          3.068460   0.104132
    207          3.115345   0.027340
    208          3.116376   0.026435
    209          3.145386   0.009482
    210          3.162090   0.004905
    211          3.192650   0.001286
    212          4.683351   0.000000
    213          5.316800   0.000000
    214          5.413074   0.000000
    215          5.413189   0.000000
    216          5.415847   0.000000
    217          5.765588   0.000000
    218          5.988053   0.000000
    219          5.999174   0.000000
    220          6.001668   0.000000
    221          6.188901   0.000000
    222          6.349683   0.000000
    223          6.357306   0.000000
    224          6.367597   0.000000
    225          6.369570   0.000000
    226          6.390708   0.000000
    227          6.652762   0.000000
    228          6.656595   0.000000
    229          6.660728   0.000000
    230          6.702304   0.000000
    231          6.958623   0.000000
    232          6.966286   0.000000
    233          6.980393   0.000000
    234          6.982881   0.000000
    235          7.035523   0.000000
    236          7.124911   0.000000
    237          7.138559   0.000000
    238          7.183940   0.000000
    239          7.228864   0.000000
    240          7.344415   0.000000
    241          7.442867   0.000000
    242          7.479391   0.000000
    243          7.514288   0.000000
    244          7.516891   0.000000
    245          7.581006   0.000000
    246          7.584656   0.000000
    247          7.612460   0.000000
    248          7.694990   0.000000
    249          7.717606   0.000000
    250          7.735257   0.000000
 
  0.2500000E+00  0.0000000E+00  0.0000000E+00  0.1666667E+00
      1        -27.855603   1.000000
      2        -21.980400   1.000000
      3        -12.905933   1.000000
      4        -12.210076   1.000000
      5        -12.076374   1.000000
      6        -11.871410   1.000000
      7        -11.870364   1.000000
      8        -11.422610   1.000000
      9        -11.408690   1.000000
     10        -11.382720   1.000000
     11        -11.361585   1.000000
     12        -11.216325   1.000000
     13        -11.215400   1.000000
     14        -11.063821   1.000000
     15        -11.061816   1.000000
     16        -11.009350   1.000000
     17        -10.899436   1.000000
     18        -10.434746   1.000000
     19        -10.431542   1.000000
     20        -10.367846   1.000000
     21        -10.135638   1.000000
     22        -10.101430   1.000000
     23        -10.099845   1.000000
     24        -10.060464   1.000000
     25        -10.052043   1.000000
     26         -9.686459   1.000000
     27         -9.565887   1.000000
     28         -9.480783   1.000000
     29         -9.472240   1.000000
     30         -9.451765   1.000000
     31         -9.442153   1.000000
     32         -9.359922   1.000000
     33         -9.225623   1.000000
     34         -9.211390   1.000000
     35         -9.201959   1.000000
     36         -8.935102   1.000000
     37         -8.827024   1.000000
     38         -8.794573   1.000000
     39         -8.769512   1.000000
     40         -8.754374   1.000000
     41         -8.642398   1.000000
     42         -8.615249   1.000000
     43         -8.558500   1.000000
     44         -8.319254   1.000000
     45         -8.300483   1.000000
     46         -8.145361   1.000000
     47         -8.025364   1.000000
     48         -7.839326   1.000000
     49         -7.663786   1.000000
     50         -7.522252   1.000000
     51         -7.486515   1.000000
     52         -7.337309   1.000000
     53         -7.199040   1.000000
     54         -6.006861   1.000000
     55         -5.863178   1.000000
     56         -5.857006   1.000000
     57         -5.528315   1.000000
     58         -5.467258   1.000000
     59         -5.420705   1.000000
     60         -5.374541   1.000000
     61         -5.370804   1.000000
     62         -5.363077   1.000000
     63         -5.154752   1.000000
     64         -5.118341   1.000000
     65         -5.068887   1.000000
     66         -4.940172   1.000000
     67         -4.903199   1.000000
     68         -4.871642   1.000000
     69         -4.793581   1.000000
     70         -4.722996   1.000000
     71         -4.689940   1.000000
     72         -4.686042   1.000000
     73         -4.681504   1.000000
     74         -4.645881   1.000000
     75         -4.616433   1.000000
     76         -4.456858   1.000000
     77         -4.221999   1.000000
     78         -4.177949   1.000000
     79         -4.064437   1.000000
     80         -4.026182   1.000000
     81         -4.012660   1.000000
     82         -3.955218   1.000000
     83         -3.743852   1.000000
     84         -3.686208   1.000000
     85         -3.564272   1.000000
     86         -3.316941   1.000000
     87         -3.272586   1.000000
     88         -3.233841   1.000000
     89         -3.204016   1.000000
     90         -3.195166   1.000000
     91         -3.162395   1.000000
     92         -3.063830   1.000000
     93         -2.994719   1.000000
     94         -2.975624   1.000000
     95         -2.849447   1.000000
     96         -2.821965   1.000000
     97         -2.771805   1.000000
     98         -2.676041   1.000000
     99         -2.637868   1.000000
    100         -2.535569   1.000000
    101         -2.485644   1.000000
    102         -2.405406   1.000000
    103         -2.304789   1.000000
    104         -2.258847   1.000000
    105         -2.232705   1.000000
    106         -2.170995   1.000000
    107         -2.142630   1.000000
    108         -2.125571   1.000000
    109         -2.097803   1.000000
    110         -1.878541   1.000000
    111         -1.862828   1.000000
    112         -1.835012   1.000000
    113         -1.777682   1.000000
    114         -1.601833   1.000000
    115         -1.590487   1.000000
    116         -1.528261   1.000000
    117         -1.499104   1.000000
    118         -1.462304   1.000000
    119         -1.361777   1.000000
    120         -1.304498   1.000000
    121         -1.286536   1.000000
    122         -1.270207   1.000000
    123         -1.253387   1.000000
    124         -1.217311   1.000000
    125         -1.195723   1.000000
    126         -1.164749   1.000000
    127         -1.098731   1.000000
    128         -1.091056   1.000000
    129         -1.066244   1.000000
    130         -1.026401   1.000000
    131         -1.019731   1.000000
    132         -1.001358   1.000000
    133         -0.933252   1.000000
    134         -0.909576   1.000000
    135         -0.895500   1.000000
    136         -0.848598   1.000000
    137         -0.821091   1.000000
    138         -0.715226   1.000000
    139         -0.676290   1.000000
    140         -0.656039   1.000000
    141         -0.574616   1.000000
    142         -0.479664   1.000000
    143         -0.447346   1.000000
    144         -0.411201   1.000000
    145         -0.402119   1.000000
    146         -0.390953   1.000000
    147         -0.369314   1.000000
    148         -0.316441   1.000000
    149         -0.288333   1.000000
    150         -0.214402   1.000000
    151         -0.189297   1.000000
    152         -0.171169   1.000000
    153          0.026469   1.000000
    154          0.036924   1.000000
    155          0.102887   1.000000
    156          0.125473   1.000000
    157          0.222823   1.000000
    158          0.347284   1.000000
    159          0.406497   1.000000
    160          0.408463   1.000000
    161          0.425491   1.000000
    162          0.436053   1.000000
    163          0.454665   1.000000
    164          0.478849   1.000000
    165          0.491624   1.000000
    166          0.503292   1.000000
    167          0.636478   1.000000
    168          0.649342   1.000000
    169          0.661966   1.000000
    170          0.694938   1.000000
    171          0.708997   1.000000
    172          0.751020   1.000000
    173          0.760316   1.000000
    174          0.873443   1.000000
    175          0.896204   1.000000
    176          0.916135   1.000000
    177          0.950184   1.000000
    178          1.052734   1.000000
    179          1.183815   1.000000
    180          1.202902   1.000000
    181          1.222648   1.000000
    182          1.380505   1.000000
    183          1.537821   1.000000
    184          1.552849   1.000000
    185          1.657714   1.000000
    186          1.692688   1.000000
    187          2.206222   1.000000
    188          2.479881   1.000000
    189          2.548257   1.000000
    190          2.564035   1.000000
    191          2.610480   1.000000
    192          2.665838   0.999995
    193          2.834433   0.979881
    194          2.857023   0.958347
    195          2.887522   0.903285
    196          2.901370   0.865346
    197          2.932211   0.748092
    198          2.935075   0.735000
    199          2.950243   0.660377
    200          2.966276   0.574075
    201          2.984360   0.472497
    202          3.009318   0.336529
    203          3.057916   0.133666
    204          3.078774   0.080127
    205          3.115837   0.026905
    206          3.127989   0.017855
    207          3.131827   0.015601
    208          3.151815   0.007401
    209          3.164692   0.004406
    210          3.182345   0.002059
    211          3.218680   0.000359
    212          4.846908   0.000000
    213          4.888289   0.000000
    214          5.100004   0.000000
    215          5.737859   0.000000
    216          6.080863   0.000000
    217          6.133478   0.000000
    218          6.176604   0.000000
    219          6.183993   0.000000
    220          6.210566   0.000000
    221          6.220237   0.000000
    222          6.326003   0.000000
    223          6.431123   0.000000
    224          6.434423   0.000000
    225          6.495379   0.000000
    226          6.551232   0.000000
    227          6.610252   0.000000
    228          6.656997   0.000000
    229          6.753406   0.000000
    230          6.761615   0.000000
    231          6.805093   0.000000
    232          7.210574   0.000000
    233          7.230909   0.000000
    234          7.246140   0.000000
    235          7.276639   0.000000
    236          7.281587   0.000000
    237          7.312217   0.000000
    238          7.325565   0.000000
    239          7.329062   0.000000
    240          7.341397   0.000000
    241          7.369496   0.000000
    242          7.493045   0.000000
    243          7.504734   0.000000
    244          7.532487   0.000000
    245          7.563794   0.000000
    246          7.644329   0.000000
    247          7.701068   0.000000
    248          7.752882   0.000000
    249          7.838000   0.000000
    250          7.846644   0.000000
 
  0.5000000E+00  0.0000000E+00  0.0000000E+00  0.8333333E-01
      1        -27.855603   1.000000
      2        -21.980405   1.000000
      3        -12.646903   1.000000
      4        -12.637830   1.000000
      5        -11.836189   1.000000
      6        -11.801602   1.000000
      7        -11.625421   1.000000
      8        -11.624465   1.000000
      9        -11.617068   1.000000
     10        -11.615802   1.000000
     11        -11.411236   1.000000
     12        -11.393697   1.000000
     13        -11.369622   1.000000
     14        -10.850032   1.000000
     15        -10.836084   1.000000
     16        -10.805486   1.000000
     17        -10.803158   1.000000
     18        -10.784158   1.000000
     19        -10.734419   1.000000
     20        -10.102653   1.000000
     21        -10.101840   1.000000
     22         -9.886417   1.000000
     23         -9.839603   1.000000
     24         -9.815298   1.000000
     25         -9.808395   1.000000
     26         -9.754784   1.000000
     27         -9.754025   1.000000
     28         -9.492860   1.000000
     29         -9.489503   1.000000
     30         -9.410397   1.000000
     31         -9.400097   1.000000
     32         -9.346006   1.000000
     33         -9.269903   1.000000
     34         -9.266709   1.000000
     35         -9.220912   1.000000
     36         -9.037584   1.000000
     37         -9.015115   1.000000
     38         -8.715325   1.000000
     39         -8.674007   1.000000
     40         -8.666514   1.000000
     41         -8.643666   1.000000
     42         -8.544859   1.000000
     43         -8.475543   1.000000
     44         -8.452106   1.000000
     45         -8.363788   1.000000
     46         -8.327580   1.000000
     47         -8.317439   1.000000
     48         -7.738196   1.000000
     49         -7.530818   1.000000
     50         -7.486296   1.000000
     51         -7.395738   1.000000
     52         -7.372993   1.000000
     53         -7.273494   1.000000
     54         -6.085282   1.000000
     55         -6.075539   1.000000
     56         -5.805653   1.000000
     57         -5.792656   1.000000
     58         -5.535679   1.000000
     59         -5.525546   1.000000
     60         -5.315528   1.000000
     61         -5.288699   1.000000
     62         -5.281518   1.000000
     63         -5.153636   1.000000
     64         -5.125009   1.000000
     65         -5.121687   1.000000
     66         -5.119198   1.000000
     67         -5.119145   1.000000
     68         -4.969380   1.000000
     69         -4.836094   1.000000
     70         -4.801145   1.000000
     71         -4.793855   1.000000
     72         -4.725694   1.000000
     73         -4.601043   1.000000
     74         -4.594450   1.000000
     75         -4.590527   1.000000
     76         -4.431476   1.000000
     77         -4.430665   1.000000
     78         -4.375783   1.000000
     79         -4.262974   1.000000
     80         -4.239948   1.000000
     81         -3.985531   1.000000
     82         -3.946712   1.000000
     83         -3.476975   1.000000
     84         -3.376440   1.000000
     85         -3.365095   1.000000
     86         -3.357056   1.000000
     87         -3.340539   1.000000
     88         -3.217419   1.000000
     89         -2.930330   1.000000
     90         -2.907934   1.000000
     91         -2.821693   1.000000
     92         -2.812175   1.000000
     93         -2.708469   1.000000
     94         -2.627009   1.000000
     95         -2.568895   1.000000
     96         -2.566380   1.000000
     97         -2.556226   1.000000
     98         -2.540852   1.000000
     99         -2.526372   1.000000
    100         -2.521158   1.000000
    101         -2.333084   1.000000
    102         -2.322358   1.000000
    103         -2.308252   1.000000
    104         -2.283319   1.000000
    105         -2.248177   1.000000
    106         -2.197581   1.000000
    107         -2.154616   1.000000
    108         -2.121693   1.000000
    109         -1.830346   1.000000
    110         -1.827759   1.000000
    111         -1.821078   1.000000
    112         -1.812605   1.000000
    113         -1.779595   1.000000
    114         -1.736121   1.000000
    115         -1.641942   1.000000
    116         -1.633870   1.000000
    117         -1.549998   1.000000
    118         -1.548236   1.000000
    119         -1.536292   1.000000
    120         -1.471440   1.000000
    121         -1.384010   1.000000
    122         -1.362915   1.000000
    123         -1.303845   1.000000
    124         -1.297901   1.000000
    125         -1.183029   1.000000
    126         -1.180390   1.000000
    127         -1.128156   1.000000
    128         -1.014752   1.000000
    129         -0.970210   1.000000
    130         -0.969521   1.000000
    131         -0.918114   1.000000
    132         -0.916109   1.000000
    133         -0.915733   1.000000
    134         -0.900579   1.000000
    135         -0.858196   1.000000
    136         -0.843330   1.000000
    137         -0.768275   1.000000
    138         -0.746567   1.000000
    139         -0.711994   1.000000
    140         -0.656539   1.000000
    141         -0.439664   1.000000
    142         -0.431472   1.000000
    143         -0.383938   1.000000
    144         -0.361102   1.000000
    145         -0.338921   1.000000
    146         -0.306124   1.000000
    147         -0.289141   1.000000
    148         -0.277109   1.000000
    149         -0.270006   1.000000
    150         -0.242601   1.000000
    151         -0.141757   1.000000
    152         -0.119419   1.000000
    153         -0.108167   1.000000
    154         -0.103726   1.000000
    155         -0.100153   1.000000
    156         -0.092968   1.000000
    157          0.107729   1.000000
    158          0.133661   1.000000
    159          0.165127   1.000000
    160          0.180342   1.000000
    161          0.297726   1.000000
    162          0.313961   1.000000
    163          0.323364   1.000000
    164          0.331513   1.000000
    165          0.540107   1.000000
    166          0.556894   1.000000
    167          0.559882   1.000000
    168          0.565713   1.000000
    169          0.616884   1.000000
    170          0.621499   1.000000
    171          0.703364   1.000000
    172          0.709680   1.000000
    173          0.715995   1.000000
    174          0.746850   1.000000
    175          0.876039   1.000000
    176          0.885560   1.000000
    177          0.970110   1.000000
    178          0.984230   1.000000
    179          0.986580   1.000000
    180          1.018045   1.000000
    181          1.266679   1.000000
    182          1.273816   1.000000
    183          1.297194   1.000000
    184          1.308528   1.000000
    185          1.524195   1.000000
    186          1.528080   1.000000
    187          2.159077   1.000000
    188          2.221264   1.000000
    189          2.460621   1.000000
    190          2.499334   1.000000
    191          2.690168   0.999979
    192          2.709568   0.999933
    193          2.740533   0.999637
    194          2.809053   0.992028
    195          2.892874   0.889677
    196          2.900119   0.869143
    197          2.908108   0.843603
    198          2.937281   0.724679
    199          3.033024   0.224462
    200          3.049372   0.161477
    201          3.073077   0.092810
    202          3.090458   0.058271
    203          3.096158   0.049466
    204          3.102904   0.040452
    205          3.112199   0.030265
    206          3.113609   0.028924
    207          3.115674   0.027049
    208          3.117890   0.025150
    209          3.119382   0.023936
    210          3.212124   0.000501
    211          3.231140   0.000186
    212          4.667723   0.000000
    213          4.702423   0.000000
    214          5.597956   0.000000
    215          5.786182   0.000000
    216          5.879345   0.000000
    217          5.989297   0.000000
    218          6.039551   0.000000
    219          6.302242   0.000000
    220          6.305680   0.000000
    221          6.312642   0.000000
    222          6.353208   0.000000
    223          6.397250   0.000000
    224          6.978313   0.000000
    225          6.979497   0.000000
    226          6.981645   0.000000
    227          6.982389   0.000000
    228          6.998021   0.000000
    229          7.004750   0.000000
    230          7.019030   0.000000
    231          7.036012   0.000000
    232          7.103112   0.000000
    233          7.208393   0.000000
    234          7.209034   0.000000
    235          7.466646   0.000000
    236          7.479383   0.000000
    237          7.500200   0.000000
    238          7.542673   0.000000
    239          7.578166   0.000000
    240          7.583176   0.000000
    241          7.588549   0.000000
    242          7.589669   0.000000
    243          7.608579   0.000000
    244          7.657506   0.000000
    245          7.711970   0.000000
    246          7.713283   0.000000
    247          7.747428   0.000000
    248          7.754796   0.000000
    249          7.761341   0.000000
    250          7.779416   0.000000
 
  0.0000000E+00  0.3333333E+00  0.0000000E+00  0.1666667E+00
      1        -27.855603   1.000000
      2        -21.980406   1.000000
      3        -12.876501   1.000000
      4        -12.526169   1.000000
      5        -12.047977   1.000000
      6        -11.706275   1.000000
      7        -11.512822   1.000000
      8        -11.511973   1.000000
      9        -11.411229   1.000000
     10        -11.394675   1.000000
     11        -11.369452   1.000000
     12        -11.192932   1.000000
     13        -11.192675   1.000000
     14        -11.192343   1.000000
     15        -10.985383   1.000000
     16        -10.726552   1.000000
     17        -10.710995   1.000000
     18        -10.655562   1.000000
     19        -10.426611   1.000000
     20        -10.409498   1.000000
     21        -10.401603   1.000000
     22        -10.323674   1.000000
     23        -10.034451   1.000000
     24        -10.034120   1.000000
     25         -9.770027   1.000000
     26         -9.727762   1.000000
     27         -9.632588   1.000000
     28         -9.545894   1.000000
     29         -9.466267   1.000000
     30         -9.463064   1.000000
     31         -9.447481   1.000000
     32         -9.368739   1.000000
     33         -9.368118   1.000000
     34         -9.361753   1.000000
     35         -9.349012   1.000000
     36         -9.175541   1.000000
     37         -8.879724   1.000000
     38         -8.852515   1.000000
     39         -8.844132   1.000000
     40         -8.668817   1.000000
     41         -8.634938   1.000000
     42         -8.443926   1.000000
     43         -8.332243   1.000000
     44         -8.326191   1.000000
     45         -8.251786   1.000000
     46         -8.129430   1.000000
     47         -8.015816   1.000000
     48         -8.002895   1.000000