       N       E                     dE             d eps       ncg     rms          rms(c)
DAV:   1     0.223171642722E+04    0.22317E+04   -0.17220E+05  3500   0.138E+03
DAV:   2    -0.468533418029E+03   -0.27002E+04   -0.25843E+04  4530   0.279E+02
DAV:   3    -0.780973697741E+03   -0.31244E+03   -0.30763E+03  4336   0.896E+01
DAV:   4    -0.798006896997E+03   -0.17033E+02   -0.16981E+02  4880   0.224E+01
DAV:   5    -0.798584791711E+03   -0.57789E+00   -0.57732E+00  4888   0.380E+00    0.509E+01
RMM:   6    -0.702993443877E+03    0.95591E+02   -0.29078E+02  3535   0.232E+01    0.261E+01
RMM:   7    -0.694628888332E+03    0.83646E+01   -0.54405E+01  3592   0.129E+01    0.163E+01
RMM:   8    -0.688095016479E+03    0.65339E+01   -0.28053E+01  3803   0.777E+00    0.125E+01
RMM:   9    -0.688172104631E+03   -0.77088E-01   -0.53937E+00  3717   0.372E+00    0.112E+01
RMM:  10    -0.689223236686E+03   -0.10511E+01   -0.35751E+00  3617   0.286E+00    0.111E+01
RMM:  11    -0.685839769834E+03    0.33835E+01   -0.79509E-01  3956   0.153E+00    0.632E+00
RMM:  12    -0.685670101130E+03    0.16967E+00   -0.23591E-01  4995   0.712E-01    0.578E+00
RMM:  13    -0.685192478612E+03    0.47762E+00   -0.59274E-01  3977   0.937E-01    0.286E+00
RMM:  14    -0.685145199264E+03    0.47279E-01   -0.18565E-01  4217   0.633E-01    0.234E+00
RMM:  15    -0.685065399432E+03    0.79800E-01   -0.84053E-02  4191   0.362E-01    0.190E+00
RMM:  16    -0.684976966637E+03    0.88433E-01   -0.17622E-01  4488   0.495E-01    0.266E+00
RMM:  17    -0.684911060038E+03    0.65907E-01   -0.60740E-02  4556   0.290E-01    0.238E+00
RMM:  18    -0.684890368639E+03    0.20691E-01   -0.22122E-01  5377   0.491E-01    0.278E+00
RMM:  19    -0.684865284960E+03    0.25084E-01   -0.42320E-02  4845   0.270E-01    0.233E+00
RMM:  20    -0.684832741449E+03    0.32544E-01   -0.28542E-02  4685   0.190E-01    0.170E+00
RMM:  21    -0.684823453573E+03    0.92879E-02   -0.25261E-02  4627   0.187E-01    0.130E+00
RMM:  22    -0.684826336548E+03   -0.28830E-02   -0.62068E-02  5665   0.309E-01    0.737E-01
RMM:  23    -0.684827664410E+03   -0.13279E-02   -0.83245E-03  4529   0.122E-01    0.346E-01
RMM:  24    -0.684831920215E+03   -0.42558E-02   -0.35866E-03  5158   0.773E-02    0.407E-01
RMM:  25    -0.684835605092E+03   -0.36849E-02   -0.27329E-03  4947   0.726E-02    0.312E-01
RMM:  26    -0.684840655361E+03   -0.50503E-02   -0.27473E-03  4976   0.695E-02    0.295E-01
RMM:  27    -0.684842837001E+03   -0.21816E-02   -0.87655E-04  5198   0.441E-02    0.321E-01
RMM:  28    -0.684842961975E+03   -0.12497E-03   -0.57241E-04  5248   0.302E-02    0.112E-01
RMM:  29    -0.684843922834E+03   -0.96086E-03   -0.46381E-04  5261   0.269E-02    0.103E-01
RMM:  30    -0.684844639497E+03   -0.71666E-03   -0.24060E-04  5414   0.209E-02    0.674E-02
RMM:  31    -0.684845153990E+03   -0.51449E-03   -0.18873E-04  5282   0.161E-02    0.106E-01
RMM:  32    -0.684845330840E+03   -0.17685E-03   -0.11973E-04  5374   0.136E-02    0.820E-02
RMM:  33    -0.684845465175E+03   -0.13434E-03   -0.88639E-05  5329   0.105E-02    0.368E-02
RMM:  34    -0.684845682614E+03   -0.21744E-03   -0.84810E-05  5153   0.954E-03    0.138E-02
RMM:  35    -0.684845783492E+03   -0.10088E-03   -0.54597E-05  4615   0.718E-03    0.928E-03
RMM:  36    -0.684845906745E+03   -0.12325E-03   -0.44251E-05  4734   0.675E-03    0.101E-02
RMM:  37    -0.684845943899E+03   -0.37154E-04   -0.27378E-05  3356   0.474E-03    0.760E-03
RMM:  38    -0.684845963291E+03   -0.19392E-04   -0.14690E-05  3102   0.374E-03    0.619E-03
RMM:  39    -0.684845974354E+03   -0.11063E-04   -0.10931E-05  3123   0.363E-03    0.375E-03
RMM:  40    -0.684845977498E+03   -0.31434E-05   -0.67276E-06  2734   0.277E-03    0.294E-03
RMM:  41    -0.684845979735E+03   -0.22371E-05   -0.49855E-06  2551   0.227E-03    0.185E-03
RMM:  42    -0.684845980945E+03   -0.12105E-05   -0.36568E-06  2064   0.195E-03    0.190E-03
RMM:  43    -0.684845982510E+03   -0.15649E-05   -0.35745E-06  2545   0.193E-03    0.305E-03
RMM:  44    -0.684845982774E+03   -0.26370E-06   -0.23499E-06  1671   0.159E-03
   1 F= -.68484598E+03 E0= -.68465253E+03  d E =-.684846E+03
       N       E                     dE             d eps       ncg     rms          rms(c)
DAV:   1    -0.684848662443E+03   -0.26799E-02   -0.93685E-01  3908   0.195E+00    0.192E-01
RMM:   2    -0.684851709356E+03   -0.30469E-02   -0.24818E-02  3575   0.285E-01    0.351E-01
RMM:   3    -0.684850798431E+03    0.91092E-03   -0.42056E-03  4032   0.111E-01    0.176E-01
RMM:   4    -0.684850809702E+03   -0.11271E-04   -0.81835E-04  4191   0.515E-02    0.171E-01
RMM:   5    -0.684850552790E+03    0.25691E-03   -0.28501E-04  3750   0.275E-02    0.105E-01
RMM:   6    -0.684850467962E+03    0.84828E-04   -0.19142E-04  3659   0.203E-02    0.771E-02
RMM:   7    -0.684850530830E+03   -0.62868E-04   -0.22234E-04  3621   0.199E-02    0.111E-01
RMM:   8    -0.684850405269E+03    0.12556E-03   -0.82761E-05  3574   0.138E-02    0.269E-02
RMM:   9    -0.684850406490E+03   -0.12207E-05   -0.31945E-05  4208   0.817E-03    0.193E-02
RMM:  10    -0.684850404245E+03    0.22449E-05   -0.78517E-06  3349   0.417E-03    0.995E-03
RMM:  11    -0.684850404113E+03    0.13143E-06   -0.37513E-06  2606   0.260E-03
   2 F= -.68485040E+03 E0= -.68465690E+03  d E =-.442134E-02
       N       E                     dE             d eps       ncg     rms          rms(c)
DAV:   1    -0.684851073053E+03   -0.66881E-03   -0.34874E-01  3726   0.116E+00    0.118E-01
RMM:   2    -0.684852541903E+03   -0.14688E-02   -0.12189E-02  3562   0.194E-01    0.210E-01
RMM:   3    -0.684852209285E+03    0.33262E-03   -0.14857E-03  3889   0.762E-02    0.108E-01
RMM:   4    -0.684852244542E+03   -0.35258E-04   -0.32494E-04  3949   0.351E-02    0.111E-01
RMM:   5    -0.684852154470E+03    0.90072E-04   -0.85139E-05  3688   0.166E-02    0.577E-02
RMM:   6    -0.684852141983E+03    0.12487E-04   -0.49001E-05  3661   0.108E-02    0.442E-02
RMM:   7    -0.684852170328E+03   -0.28345E-04   -0.64742E-05  3557   0.109E-02    0.627E-02
RMM:   8    -0.684852134515E+03    0.35813E-04   -0.36213E-05  3493   0.930E-03    0.217E-02
RMM:   9    -0.684852133475E+03    0.10402E-05   -0.12396E-05  3348   0.533E-03    0.122E-02
RMM:  10    -0.684852132823E+03    0.65245E-06   -0.39221E-06  2477   0.316E-03
   3 F= -.68485213E+03 E0= -.68465859E+03  d E =-.172871E-02
       N       E                     dE             d eps       ncg     rms          rms(c)
DAV:   1    -0.684852348418E+03   -0.21494E-03   -0.65477E-01  3806   0.150E+00    0.151E-01
RMM:   2    -0.684854742998E+03   -0.23946E-02   -0.19428E-02  3571   0.239E-01    0.276E-01
RMM:   3    -0.684854166702E+03    0.57630E-03   -0.21455E-03  3816   0.893E-02    0.134E-01
RMM:   4    -0.684854284633E+03   -0.11793E-03   -0.52837E-04  4025   0.417E-02    0.158E-01
RMM:   5    -0.684854070804E+03    0.21383E-03   -0.14121E-04  3806   0.199E-02    0.649E-02
RMM:   6    -0.684854058298E+03    0.12507E-04   -0.74928E-05  3940   0.126E-02    0.511E-02
RMM:   7    -0.684854096139E+03   -0.37841E-04   -0.98355E-05  3817   0.128E-02    0.671E-02
RMM:   8    -0.684854059579E+03    0.36559E-04   -0.55165E-05  3679   0.104E-02    0.255E-02
RMM:   9    -0.684854058034E+03    0.15454E-05   -0.17198E-05  3567   0.603E-03    0.121E-02
RMM:  10    -0.684854060660E+03   -0.26259E-05   -0.69901E-06  2687   0.336E-03    0.934E-03
RMM:  11    -0.684854061331E+03   -0.67085E-06   -0.36244E-06  2164   0.210E-03
   4 F= -.68485406E+03 E0= -.68466050E+03  d E =-.192851E-02
       N       E                     dE             d eps       ncg     rms          rms(c)
DAV:   1    -0.684853724862E+03    0.33580E-03   -0.61677E-01  3688   0.136E+00    0.133E-01
RMM:   2    -0.684855792810E+03   -0.20679E-02   -0.18361E-02  3579   0.226E-01    0.207E-01
RMM:   3    -0.684855577494E+03    0.21532E-03   -0.19856E-03  3776   0.845E-02    0.127E-01
RMM:   4    -0.684855642888E+03   -0.65394E-04   -0.40098E-04  3963   0.380E-02    0.132E-01
RMM:   5    -0.684855492637E+03    0.15025E-03   -0.11146E-04  3916   0.174E-02    0.506E-02
RMM:   6    -0.684855499768E+03   -0.71312E-05   -0.65657E-05  3881   0.108E-02    0.488E-02
RMM:   7    -0.684855521833E+03   -0.22065E-04   -0.80732E-05  3793   0.120E-02    0.454E-02
RMM:   8    -0.684855509590E+03    0.12243E-04   -0.30994E-05  3515   0.771E-03    0.189E-02
RMM:   9    -0.684855511548E+03   -0.19573E-05   -0.15023E-05  3273   0.496E-03    0.120E-02
RMM:  10    -0.684855513550E+03   -0.20025E-05   -0.64027E-06  2418   0.295E-03    0.704E-03
RMM:  11    -0.684855514782E+03   -0.12318E-05   -0.38518E-06  2082   0.192E-03    0.590E-03
RMM:  12    -0.684855518793E+03   -0.40113E-05   -0.46471E-06  2271   0.229E-03    0.431E-03
RMM:  13    -0.684855519919E+03   -0.11252E-05   -0.17353E-06  1961   0.137E-03    0.296E-03
RMM:  14    -0.684855521664E+03   -0.17453E-05   -0.11520E-06  1768   0.105E-03    0.217E-03
RMM:  15    -0.684855522291E+03   -0.62685E-06   -0.68026E-07  1289   0.779E-04
   5 F= -.68485552E+03 E0= -.68466194E+03  d E =-.146096E-02
       N       E                     dE             d eps       ncg     rms          rms(c)
DAV:   1    -0.684853646892E+03    0.18748E-02   -0.16049E+00  3608   0.183E+00    0.189E-01
RMM:   2    -0.684858193768E+03   -0.45469E-02   -0.40106E-02  3569   0.310E-01    0.282E-01
RMM:   3    -0.684857876482E+03    0.31729E-03   -0.45315E-03  3832   0.116E-01    0.185E-01
RMM:   4    -0.684857844743E+03    0.31740E-04   -0.84339E-04  3863   0.512E-02    0.135E-01
RMM:   5    -0.684857709493E+03    0.13525E-03   -0.24066E-04  3941   0.240E-02    0.641E-02
RMM:   6    -0.684857721266E+03   -0.11773E-04   -0.12454E-04  4582   0.130E-02    0.583E-02
RMM:   7    -0.684857778744E+03   -0.57478E-04   -0.12012E-04  3910   0.122E-02    0.676E-02
RMM:   8    -0.684857772328E+03    0.64159E-05   -0.93715E-05  3847   0.121E-02    0.262E-02
RMM:   9    -0.684857777554E+03   -0.52262E-05   -0.30784E-05  3644   0.666E-03    0.164E-02
RMM:  10    -0.684857786978E+03   -0.94243E-05   -0.16993E-05  2866   0.412E-03    0.973E-03
RMM:  11    -0.684857790246E+03   -0.32681E-05   -0.10370E-05  2347   0.261E-03    0.663E-03
RMM:  12    -0.684857797204E+03   -0.69578E-05   -0.85328E-06  2370   0.250E-03    0.650E-03
RMM:  13    -0.684857801005E+03   -0.38015E-05   -0.48075E-06  2134   0.188E-03    0.416E-03
RMM:  14    -0.684857803738E+03   -0.27323E-05   -0.28842E-06  1971   0.139E-03    0.371E-03
RMM:  15    -0.684857809100E+03   -0.53623E-05   -0.20771E-06  1852   0.123E-03    0.290E-03
RMM:  16    -0.684857811474E+03   -0.23743E-05   -0.13019E-06  1585   0.101E-03    0.159E-03
RMM:  17    -0.684857813453E+03   -0.19790E-05   -0.91401E-07  1536   0.922E-04    0.118E-03
RMM:  18    -0.684857814123E+03   -0.66992E-06   -0.57139E-07  1207   0.764E-04
   6 F= -.68485781E+03 E0= -.68466424E+03  d E =-.229183E-02
       N       E                     dE             d eps       ncg     rms          rms(c)
DAV:   1    -0.684858002578E+03   -0.18912E-03   -0.37690E-01  3640   0.783E-01    0.882E-02
RMM:   2    -0.684859025581E+03   -0.10230E-02   -0.85598E-03  3592   0.135E-01    0.148E-01
RMM:   3    -0.684858895930E+03    0.12965E-03   -0.10002E-03  3787   0.514E-02    0.790E-02
RMM:   4    -0.684858916591E+03   -0.20661E-04   -0.21330E-04  3739   0.236E-02    0.693E-02
RMM:   5    -0.684858878337E+03    0.38254E-04   -0.57006E-05  3648   0.113E-02    0.283E-02
RMM:   6    -0.684858881191E+03   -0.28536E-05   -0.29978E-05  3703   0.623E-03    0.265E-02
RMM:   7    -0.684858894081E+03   -0.12890E-04   -0.24570E-05  3405   0.527E-03    0.288E-02
RMM:   8    -0.684858897128E+03   -0.30465E-05   -0.20777E-05  3326   0.536E-03    0.107E-02
RMM:   9    -0.684858899150E+03   -0.20221E-05   -0.69061E-06  2395   0.300E-03    0.748E-03
RMM:  10    -0.684858902418E+03   -0.32684E-05   -0.41327E-06  2158   0.198E-03    0.460E-03
RMM:  11    -0.684858903673E+03   -0.12550E-05   -0.24819E-06  1949   0.137E-03    0.269E-03
RMM:  12    -0.684858906193E+03   -0.25198E-05   -0.21511E-06  1925   0.125E-03    0.270E-03
RMM:  13    -0.684858907581E+03   -0.13879E-05   -0.12134E-06  1661   0.994E-04    0.216E-03
RMM:  14    -0.684858908274E+03   -0.69289E-06   -0.70866E-07  1193   0.774E-04
   7 F= -.68485891E+03 E0= -.68466533E+03  d E =-.109415E-02
       N       E                     dE             d eps       ncg     rms          rms(c)
DAV:   1    -0.684858752781E+03    0.15480E-03   -0.72355E-01  3540   0.102E+00    0.120E-01
RMM:   2    -0.684860718138E+03   -0.19654E-02   -0.15541E-02  3581   0.177E-01    0.223E-01
RMM:   3    -0.684860363834E+03    0.35430E-03   -0.18629E-03  3818   0.677E-02    0.101E-01
RMM:   4    -0.684860429955E+03   -0.66120E-04   -0.35976E-04  3802   0.306E-02    0.102E-01
RMM:   5    -0.684860360449E+03    0.69506E-04   -0.98382E-05  3782   0.146E-02    0.526E-02
RMM:   6    -0.684860348849E+03    0.11599E-04   -0.59438E-05  3940   0.860E-03    0.305E-02
RMM:   7    -0.684860375447E+03   -0.26598E-04   -0.51443E-05  3719   0.762E-03    0.375E-02
RMM:   8    -0.684860385253E+03   -0.98055E-05   -0.37391E-05  3528   0.706E-03    0.153E-02
RMM:   9    -0.684860388725E+03   -0.34726E-05   -0.13658E-05  2786   0.396E-03    0.948E-03
RMM:  10    -0.684860396718E+03   -0.79925E-05   -0.83170E-06  2397   0.270E-03    0.705E-03
RMM:  11    -0.684860399680E+03   -0.29626E-05   -0.49697E-06  2129   0.184E-03    0.329E-03
RMM:  12    -0.684860404494E+03   -0.48140E-05   -0.36231E-06  2080   0.153E-03    0.348E-03
RMM:  13    -0.684860407994E+03   -0.34998E-05   -0.22701E-06  1869   0.125E-03    0.273E-03
RMM:  14    -0.684860409858E+03   -0.18634E-05   -0.13537E-06  1531   0.964E-04    0.228E-03
RMM:  15    -0.684860413055E+03   -0.31976E-05   -0.99780E-07  1523   0.899E-04    0.217E-03
RMM:  16    -0.684860415065E+03   -0.20098E-05   -0.68713E-07  1432   0.811E-04    0.894E-04
RMM:  17    -0.684860416081E+03   -0.10157E-05   -0.44699E-07  1166   0.703E-04    0.711E-04
RMM:  18    -0.684860416516E+03   -0.43494E-06   -0.28642E-07  1035   0.623E-04
   8 F= -.68486042E+03 E0= -.68466684E+03  d E =-.150824E-02
       N       E                     dE             d eps       ncg     rms          rms(c)
DAV:   1    -0.684860871189E+03   -0.45511E-03   -0.32481E-01  3636   0.563E-01    0.790E-02
RMM:   2    -0.684861672954E+03   -0.80176E-03   -0.55172E-03  3600   0.969E-02    0.168E-01
RMM:   3    -0.684861433355E+03    0.23960E-03   -0.75311E-04  3739   0.388E-02    0.606E-02
RMM:   4    -0.684861481597E+03   -0.48242E-04   -0.17520E-04  3711   0.187E-02    0.733E-02
RMM:   5    -0.684861450363E+03    0.31234E-04   -0.45455E-05  3563   0.928E-03    0.416E-02
RMM:   6    -0.684861438843E+03    0.11521E-04   -0.26868E-05  3319   0.572E-03    0.173E-02
RMM:   7    -0.684861448848E+03   -0.10005E-04   -0.20528E-05  3262   0.466E-03    0.204E-02
RMM:   8    -0.684861455860E+03   -0.70116E-05   -0.13560E-05  2816   0.381E-03    0.102E-02
RMM:   9    -0.684861458409E+03   -0.25493E-05   -0.61043E-06  2301   0.242E-03    0.655E-03
RMM:  10    -0.684861463120E+03   -0.47114E-05   -0.37557E-06  2144   0.179E-03    0.485E-03
RMM:  11    -0.684861464513E+03   -0.13922E-05   -0.21875E-06  1860   0.121E-03    0.191E-03
RMM:  12    -0.684861466496E+03   -0.19837E-05   -0.14517E-06  1520   0.955E-04    0.231E-03
RMM:  13    -0.684861468437E+03   -0.19404E-05   -0.98407E-07  1399   0.831E-04    0.177E-03
RMM:  14    -0.684861469632E+03   -0.11957E-05   -0.61216E-07  1214   0.717E-04    0.128E-03
RMM:  15    -0.684861471131E+03   -0.14981E-05   -0.44278E-07  1187   0.673E-04    0.142E-03
RMM:  16    -0.684861472277E+03   -0.11465E-05   -0.34988E-07  1201   0.639E-04    0.518E-04
RMM:  17    -0.684861472713E+03   -0.43551E-06   -0.21655E-07   927   0.549E-04
   9 F= -.68486147E+03 E0= -.68466790E+03  d E =-.105620E-02
       N       E                     dE             d eps       ncg     rms          rms(c)
DAV:   1    -0.684861892493E+03   -0.42022E-03   -0.85387E-02  3688   0.235E-01    0.409E-02
RMM:   2    -0.684862113784E+03   -0.22129E-03   -0.12595E-03  3584   0.417E-02    0.101E-01
RMM:   3    -0.684862019129E+03    0.94655E-04   -0.18406E-04  3632   0.179E-02    0.313E-02
RMM:   4    -0.684862030486E+03   -0.11356E-04   -0.51146E-05  3591   0.937E-03    0.375E-02
RMM:   5    -0.684862025689E+03    0.47966E-05   -0.14115E-05  3030   0.499E-03    0.243E-02
RMM:   6    -0.684862020983E+03    0.47059E-05   -0.70539E-06  2468   0.310E-03    0.799E-03
RMM:   7    -0.684862023807E+03   -0.28243E-05   -0.52304E-06  2344   0.240E-03    0.947E-03
RMM:   8    -0.684862026050E+03   -0.22427E-05   -0.33696E-06  2116   0.183E-03    0.621E-03
RMM:   9    -0.684862026557E+03   -0.50700E-06   -0.15591E-06  1908   0.126E-03
  10 F= -.68486203E+03 E0= -.68466845E+03  d E =-.553845E-03
       N       E                     dE             d eps       ncg     rms          rms(c)
DAV:   1    -0.684859870250E+03    0.21558E-02   -0.53281E-01  3644   0.573E-01    0.102E-01
RMM:   2    -0.684861233941E+03   -0.13637E-02   -0.76393E-03  3618   0.101E-01    0.251E-01
RMM:   3    -0.684860610473E+03    0.62347E-03   -0.11755E-03  3764   0.434E-02    0.804E-02
RMM:   4    -0.684860668826E+03   -0.58353E-04   -0.24616E-04  3757   0.209E-02    0.896E-02
RMM:   5    -0.684860633615E+03    0.35212E-04   -0.74837E-05  3705   0.118E-02    0.611E-02
RMM:   6    -0.684860602054E+03    0.31560E-04   -0.38388E-05  3378   0.729E-03    0.188E-02
RMM:   7    -0.684860612194E+03   -0.10139E-04   -0.29166E-05  3427   0.554E-03    0.242E-02
RMM:   8    -0.684860615041E+03   -0.28476E-05   -0.17247E-05  3007   0.407E-03    0.147E-02
RMM:   9    -0.684860615594E+03   -0.55274E-06   -0.85838E-06  2375   0.274E-03
  11 F= -.68486062E+03 E0= -.68466704E+03  d E =0.141096E-02
       N       E                     dE             d eps       ncg     rms          rms(c)
DAV:   1    -0.684853257355E+03    0.73577E-02   -0.27901E+00  3600   0.125E+00    0.227E-01
RMM:   2    -0.684860151009E+03   -0.68937E-02   -0.39896E-02  3638   0.227E-01    0.545E-01
RMM:   3    -0.684857244428E+03    0.29066E-02   -0.63125E-03  3853   0.975E-02    0.185E-01
RMM:   4    -0.684857527125E+03   -0.28270E-03   -0.13100E-03  3921   0.467E-02    0.203E-01
RMM:   5    -0.684857353797E+03    0.17333E-03   -0.39965E-04  3941   0.271E-02    0.136E-01
RMM:   6    -0.684857208095E+03    0.14570E-03   -0.20599E-04  3776   0.166E-02    0.420E-02
RMM:   7    -0.684857274959E+03   -0.66864E-04   -0.15253E-04  4101   0.124E-02    0.528E-02
RMM:   8    -0.684857312367E+03   -0.37408E-04   -0.93983E-05  3870   0.927E-03    0.314E-02
RMM:   9    -0.684857323748E+03   -0.11381E-04   -0.47782E-05  3869   0.620E-03    0.138E-02
RMM:  10    -0.684857351367E+03   -0.27619E-04   -0.28547E-05  3252   0.434E-03    0.136E-02
RMM:  11    -0.684857362225E+03   -0.10859E-04   -0.16778E-05  2551   0.296E-03    0.515E-03
RMM:  12    -0.684857374001E+03   -0.11776E-04   -0.10764E-05  2341   0.231E-03    0.653E-03
RMM:  13    -0.684857389800E+03   -0.15798E-04   -0.73538E-06  2303   0.194E-03    0.487E-03
RMM:  14    -0.684857402199E+03   -0.12400E-04   -0.48669E-06  2193   0.164E-03    0.354E-03
RMM:  15    -0.684857412953E+03   -0.10754E-04   -0.32970E-06  2124   0.140E-03    0.379E-03
RMM:  16    -0.684857423310E+03   -0.10356E-04   -0.27122E-06  2135   0.135E-03    0.153E-03
RMM:  17    -0.684857426356E+03   -0.30466E-05   -0.13162E-06  1664   0.968E-04    0.221E-03
RMM:  18    -0.684857428745E+03   -0.23890E-05   -0.90319E-07  1506   0.847E-04    0.129E-03
RMM:  19    -0.684857429856E+03   -0.11109E-05   -0.55718E-07  1162   0.710E-04    0.895E-04
RMM:  20    -0.684857431284E+03   -0.14277E-05   -0.61764E-07  1554   0.767E-04    0.112E-03
RMM:  21    -0.684857431521E+03   -0.23685E-06   -0.27672E-07  1008   0.598E-04
  12 F= -.68485743E+03 E0= -.68466387E+03  d E =0.318407E-02
       N       E                     dE             d eps       ncg     rms          rms(c)
DAV:   1    -0.684856243715E+03    0.11876E-02   -0.30417E+00  3630   0.130E+00    0.236E-01
RMM:   2    -0.684863641661E+03   -0.73979E-02   -0.42136E-02  3632   0.229E-01    0.597E-01
RMM:   3    -0.684860402933E+03    0.32387E-02   -0.64631E-03  3805   0.982E-02    0.179E-01
RMM:   4    -0.684860861863E+03   -0.45893E-03   -0.13444E-03  3902   0.483E-02    0.225E-01
RMM:   5    -0.684860600287E+03    0.26158E-03   -0.42918E-04  3825   0.275E-02    0.132E-01
RMM:   6    -0.684860473691E+03    0.12660E-03   -0.23218E-04  3762   0.170E-02    0.447E-02
RMM:   7    -0.684860564547E+03   -0.90856E-04   -0.17939E-04  4013   0.131E-02    0.553E-02
RMM:   8    -0.684860615898E+03   -0.51351E-04   -0.10832E-04  3843   0.962E-03    0.315E-02
RMM:   9    -0.684860629556E+03   -0.13658E-04   -0.53619E-05  3812   0.627E-03    0.140E-02
RMM:  10    -0.684860660006E+03   -0.30450E-04   -0.31747E-05  3088   0.424E-03    0.112E-02
RMM:  11    -0.684860672731E+03   -0.12725E-04   -0.19346E-05  2484   0.290E-03    0.495E-03
RMM:  12    -0.684860689757E+03   -0.17027E-04   -0.12609E-05  2367   0.238E-03    0.641E-03
RMM:  13    -0.684860712640E+03   -0.22883E-04   -0.89650E-06  2343   0.210E-03    0.507E-03
RMM:  14    -0.684860730442E+03   -0.17801E-04   -0.60008E-06  2267   0.178E-03    0.356E-03
RMM:  15    -0.684860744867E+03   -0.14426E-04   -0.41153E-06  2147   0.151E-03    0.372E-03
RMM:  16    -0.684860756730E+03   -0.11863E-04   -0.30392E-06  2070   0.135E-03    0.143E-03
RMM:  17    -0.684860764291E+03   -0.75606E-05   -0.19086E-06  1854   0.110E-03    0.215E-03
RMM:  18    -0.684860770592E+03   -0.63013E-05   -0.14766E-06  1782   0.999E-04    0.135E-03
RMM:  19    -0.684860772534E+03   -0.19424E-05   -0.74999E-07  1302   0.771E-04    0.784E-04
RMM:  20    -0.684860774482E+03   -0.19479E-05   -0.72693E-07  1527   0.775E-04    0.912E-04
RMM:  21    -0.684860774799E+03   -0.31658E-06   -0.32575E-07  1029   0.607E-04
  13 F= -.68486077E+03 E0= -.68466720E+03  d E =-.334328E-02
       N       E                     dE             d eps       ncg     rms          rms(c)
DAV:   1    -0.684860202889E+03    0.57159E-03   -0.63303E-02  3790   0.200E-01    0.343E-02
RMM:   2    -0.684860364627E+03   -0.16174E-03   -0.91693E-04  3545   0.364E-02    0.862E-02
RMM:   3    -0.684860294394E+03    0.70233E-04   -0.12957E-04  3593   0.157E-02    0.276E-02
RMM:   4    -0.684860301265E+03   -0.68716E-05   -0.37658E-05  3446   0.813E-03    0.307E-02
RMM:   5    -0.684860297294E+03    0.39716E-05   -0.89414E-06  2823   0.430E-03    0.211E-02
RMM:   6    -0.684860293747E+03    0.35467E-05   -0.43344E-06  2296   0.265E-03    0.664E-03
RMM:   7    -0.684860295136E+03   -0.13887E-05   -0.34371E-06  2203   0.205E-03    0.844E-03
RMM:   8    -0.684860295825E+03   -0.68886E-06   -0.20251E-06  1983   0.155E-03
  14 F= -.68486030E+03 E0= -.68466672E+03  d E =0.478974E-03
       N       E                     dE             d eps       ncg     rms          rms(c)
DAV:   1    -0.684860121834E+03    0.17330E-03   -0.97682E-03  3696   0.152E-01    0.160E-02
RMM:   2    -0.684860157325E+03   -0.35491E-04   -0.30404E-04  3474   0.280E-02    0.256E-02
RMM:   3    -0.684860154839E+03    0.24860E-05   -0.38365E-05  3459   0.112E-02    0.147E-02
RMM:   4    -0.684860156741E+03   -0.19024E-05   -0.88003E-06  2936   0.532E-03    0.171E-02
RMM:   5    -0.684860154803E+03    0.19384E-05   -0.25806E-06  2163   0.276E-03    0.693E-03
RMM:   6    -0.684860155052E+03   -0.24894E-06   -0.14978E-06  2027   0.180E-03
  15 F= -.68486016E+03 E0= -.68466659E+03  d E =0.140773E-03
       N       E                     dE             d eps       ncg     rms          rms(c)
DAV:   1    -0.684860614707E+03   -0.45990E-03   -0.92144E-02  3638   0.225E-01    0.415E-02
RMM:   2    -0.684860850366E+03   -0.23566E-03   -0.12890E-03  3579   0.416E-02    0.108E-01
RMM:   3    -0.684860741454E+03    0.10891E-03   -0.19576E-04  3655   0.182E-02    0.334E-02
RMM:   4    -0.684860748410E+03   -0.69561E-05   -0.40324E-05  3521   0.895E-03    0.363E-02
RMM:   5    -0.684860743147E+03    0.52623E-05   -0.13347E-05  3041   0.502E-03    0.251E-02
RMM:   6    -0.684860737150E+03    0.59976E-05   -0.65348E-06  2430   0.311E-03    0.762E-03
RMM:   7    -0.684860738532E+03   -0.13818E-05   -0.48555E-06  2318   0.236E-03    0.904E-03
RMM:   8    -0.684860738812E+03   -0.28095E-06   -0.27818E-06  2022   0.171E-03
  16 F= -.68486074E+03 E0= -.68466717E+03  d E =-.583761E-03
       N       E                     dE             d eps       ncg     rms          rms(c)
DAV:   1    -0.684859156034E+03    0.15825E-02   -0.34282E-01  3600   0.426E-01    0.793E-02
RMM:   2    -0.684860013751E+03   -0.85772E-03   -0.46462E-03  3622   0.772E-02    0.204E-01
RMM:   3    -0.684859611668E+03    0.40208E-03   -0.73101E-04  3763   0.338E-02    0.644E-02
RMM:   4    -0.684859645314E+03   -0.33646E-04   -0.15793E-04  3699   0.166E-02    0.699E-02
RMM:   5    -0.684859625505E+03    0.19809E-04   -0.45181E-05  3563   0.949E-03    0.485E-02
RMM:   6    -0.684859604336E+03    0.21170E-04   -0.22581E-05  3148   0.581E-03    0.140E-02
RMM:   7    -0.684859611315E+03   -0.69791E-05   -0.17594E-05  3112   0.435E-03    0.184E-02
RMM:   8    -0.684859612685E+03   -0.13702E-05   -0.10173E-05  2610   0.315E-03    0.920E-03
RMM:   9    -0.684859613569E+03   -0.88352E-06   -0.49020E-06  2186   0.211E-03
  17 F= -.68485961E+03 E0= -.68466604E+03  d E =0.112524E-02
       N       E                     dE             d eps       ncg     rms          rms(c)
DAV:   1    -0.684859391328E+03    0.22136E-03   -0.17607E-02  3648   0.219E-01    0.230E-02
RMM:   2    -0.684859468213E+03   -0.76885E-04   -0.62398E-04  3547   0.403E-02    0.409E-02
RMM:   3    -0.684859459153E+03    0.90603E-05   -0.82100E-05  3642   0.165E-02    0.204E-02
RMM:   4    -0.684859462787E+03   -0.36348E-05   -0.19663E-05  3392   0.791E-03    0.239E-02
RMM:   5    -0.684859459567E+03    0.32207E-05   -0.53116E-06  2636   0.410E-03    0.109E-02
RMM:   6    -0.684859460605E+03   -0.10382E-05   -0.32148E-06  2312   0.264E-03    0.123E-02
RMM:   7    -0.684859461395E+03   -0.79021E-06   -0.28309E-06  2280   0.248E-03
  18 F= -.68485946E+03 E0= -.68466589E+03  d E =0.152173E-03
       N       E                     dE             d eps       ncg     rms          rms(c)
DAV:   1    -0.684859894546E+03   -0.43394E-03   -0.81654E-02  3646   0.219E-01    0.378E-02
RMM:   2    -0.684860089144E+03   -0.19460E-03   -0.11735E-03  3576   0.406E-02    0.929E-02
RMM:   3    -0.684860013101E+03    0.76043E-04   -0.17296E-04  3659   0.174E-02    0.300E-02
RMM:   4    -0.684860019983E+03   -0.68820E-05   -0.34832E-05  3489   0.849E-03    0.356E-02
RMM:   5    -0.684860012800E+03    0.71832E-05   -0.10890E-05  2900   0.476E-03    0.211E-02
RMM:   6    -0.684860008829E+03    0.39711E-05   -0.54616E-06  2348   0.287E-03    0.749E-03
RMM:   7    -0.684860010122E+03   -0.12930E-05   -0.45446E-06  2281   0.229E-03    0.102E-02
RMM:   8    -0.684860009738E+03    0.38390E-06   -0.24941E-06  2006   0.172E-03
  19 F= -.68486001E+03 E0= -.68466644E+03  d E =-.548343E-03
       N       E                     dE             d eps       ncg     rms          rms(c)
DAV:   1    -0.684849404833E+03    0.10605E-01   -0.47142E+00  3596   0.149E+00    0.291E-01
RMM:   2    -0.684860623855E+03   -0.11219E-01   -0.63366E-02  3632   0.269E-01    0.702E-01
RMM:   3    -0.684855721709E+03    0.49021E-02   -0.10215E-02  3852   0.117E-01    0.240E-01
RMM:   4    -0.684856136073E+03   -0.41436E-03   -0.20533E-03  3889   0.565E-02    0.257E-01
RMM:   5    -0.684855869921E+03    0.26615E-03   -0.61523E-04  3909   0.338E-02    0.180E-01
RMM:   6    -0.684855589718E+03    0.28020E-03   -0.31288E-04  3742   0.206E-02    0.498E-02
RMM:   7    -0.684855692542E+03   -0.10282E-03   -0.23304E-04  4080   0.154E-02    0.669E-02
RMM:   8    -0.684855726122E+03   -0.33580E-04   -0.13842E-04  3903   0.112E-02    0.366E-02
RMM:   9    -0.684855739754E+03   -0.13632E-04   -0.70384E-05  4069   0.744E-03    0.173E-02
RMM:  10    -0.684855771829E+03   -0.32075E-04   -0.41922E-05  3610   0.515E-03    0.171E-02
RMM:  11    -0.684855783897E+03   -0.12068E-04   -0.24523E-05  2799   0.354E-03    0.610E-03
RMM:  12    -0.684855796910E+03   -0.13014E-04   -0.15697E-05  2456   0.272E-03    0.778E-03
RMM:  13    -0.684855816040E+03   -0.19130E-04   -0.10647E-05  2409   0.229E-03    0.528E-03
RMM:  14    -0.684855830092E+03   -0.14052E-04   -0.68651E-06  2299   0.190E-03    0.432E-03
RMM:  15    -0.684855843772E+03   -0.13680E-04   -0.47153E-06  2279   0.165E-03    0.427E-03
RMM:  16    -0.684855855936E+03   -0.12163E-04   -0.36812E-06  2252   0.154E-03    0.182E-03
RMM:  17    -0.684855860022E+03   -0.40864E-05   -0.19415E-06  1857   0.112E-03    0.272E-03
RMM:  18    -0.684855862923E+03   -0.29009E-05   -0.12655E-06  1650   0.960E-04    0.151E-03
RMM:  19    -0.684855864281E+03   -0.13584E-05   -0.76421E-07  1299   0.791E-04    0.112E-03
RMM:  20    -0.684855866060E+03   -0.17786E-05   -0.82871E-07  1681   0.848E-04    0.130E-03
RMM:  21    -0.684855866371E+03   -0.31103E-06   -0.38344E-07  1105   0.652E-04
  20 F= -.68485587E+03 E0= -.68466231E+03  d E =0.414337E-02
       N       E                     dE             d eps       ncg     rms          rms(c)
DAV:   1    -0.684848332307E+03    0.75338E-02   -0.30890E+00  3596   0.116E+00    0.237E-01
RMM:   2    -0.684855668261E+03   -0.73360E-02   -0.40857E-02  3637   0.209E-01    0.578E-01
RMM:   3    -0.684852385563E+03    0.32827E-02   -0.67025E-03  3834   0.929E-02    0.188E-01
RMM:   4    -0.684852723662E+03   -0.33810E-03   -0.13740E-03  3856   0.457E-02    0.215E-01
RMM:   5    -0.684852517638E+03    0.20602E-03   -0.41223E-04  3844   0.273E-02    0.144E-01
RMM:   6    -0.684852344321E+03    0.17332E-03   -0.22093E-04  3678   0.171E-02    0.406E-02
RMM:   7    -0.684852413451E+03   -0.69130E-04   -0.16295E-04  3977   0.126E-02    0.532E-02
RMM:   8    -0.684852440241E+03   -0.26790E-04   -0.96409E-05  3788   0.908E-03    0.299E-02
RMM:   9    -0.684852450560E+03   -0.10319E-04   -0.50485E-05  3710   0.611E-03    0.142E-02
RMM:  10    -0.684852474191E+03   -0.23631E-04   -0.30274E-05  3126   0.428E-03    0.139E-02
RMM:  11    -0.684852483355E+03   -0.91642E-05   -0.17924E-05  2520   0.299E-03    0.517E-03
RMM:  12    -0.684852493604E+03   -0.10249E-04   -0.11562E-05  2318   0.233E-03    0.673E-03
RMM:  13    -0.684852508269E+03   -0.14665E-04   -0.79125E-06  2311   0.198E-03    0.458E-03
RMM:  14    -0.684852518673E+03   -0.10404E-04   -0.51273E-06  2187   0.165E-03    0.357E-03
RMM:  15    -0.684852527773E+03   -0.90997E-05   -0.34871E-06  2127   0.143E-03    0.364E-03
RMM:  16    -0.684852534961E+03   -0.71879E-05   -0.26130E-06  2071   0.131E-03    0.156E-03
RMM:  17    -0.684852537649E+03   -0.26882E-05   -0.14291E-06  1694   0.996E-04    0.237E-03
RMM:  18    -0.684852539721E+03   -0.20722E-05   -0.96121E-07  1522   0.874E-04    0.134E-03
RMM:  19    -0.684852540670E+03   -0.94877E-06   -0.61185E-07  1249   0.738E-04
  21 F= -.68485254E+03 E0= -.68465899E+03  d E =0.332570E-02
       N       E                     dE             d eps       ncg     rms          rms(c)
DAV:   1    -0.684853065207E+03   -0.52549E-03   -0.61206E-01  3656   0.570E-01    0.104E-01
RMM:   2    -0.684854514445E+03   -0.14492E-02   -0.83929E-03  3625   0.100E-01    0.257E-01
RMM:   3    -0.684853925287E+03    0.58916E-03   -0.12527E-03  3764   0.429E-02    0.788E-02
RMM:   4    -0.684854019427E+03   -0.94140E-04   -0.25844E-04  3729   0.217E-02    0.102E-01
RMM:   5    -0.684853966241E+03    0.53185E-04   -0.82641E-05  3553   0.124E-02    0.577E-02
RMM:   6    -0.684853944307E+03    0.21934E-04   -0.45480E-05  3400   0.747E-03    0.185E-02
RMM:   7    -0.684853969421E+03   -0.25114E-04   -0.37933E-05  3495   0.595E-03    0.257E-02
RMM:   8    -0.684853978921E+03   -0.94993E-05   -0.21244E-05  3041   0.426E-03    0.121E-02
RMM:   9    -0.684853982673E+03   -0.37520E-05   -0.10762E-05  2374   0.277E-03    0.620E-03
RMM:  10    -0.684853989524E+03   -0.68514E-05   -0.63318E-06  2140   0.190E-03    0.485E-03
RMM:  11    -0.684853992754E+03   -0.32295E-05   -0.39057E-06  1874   0.137E-03    0.225E-03
RMM:  12    -0.684853997858E+03   -0.51050E-05   -0.26626E-06  1811   0.117E-03    0.328E-03
RMM:  13    -0.684854004045E+03   -0.61861E-05   -0.19871E-06  1826   0.106E-03    0.216E-03
RMM:  14    -0.684854007622E+03   -0.35778E-05   -0.12305E-06  1557   0.882E-04    0.171E-03
RMM:  15    -0.684854010128E+03   -0.25061E-05   -0.81850E-07  1363   0.768E-04    0.153E-03
RMM:  16    -0.684854011549E+03   -0.14202E-05   -0.53706E-07  1259   0.681E-04    0.595E-04
RMM:  17    -0.684854012760E+03   -0.12111E-05   -0.39913E-07  1231   0.632E-04    0.105E-03
RMM:  18    -0.684854013504E+03   -0.74468E-06   -0.27871E-07  1117   0.580E-04
  22 F= -.68485401E+03 E0= -.68466046E+03  d E =-.147283E-02
       N       E                     dE             d eps       ncg     rms          rms(c)
DAV:   1    -0.684852788610E+03    0.12241E-02   -0.23428E-01  3634   0.311E-01    0.647E-02
RMM:   2    -0.684853334526E+03   -0.54592E-03   -0.29930E-03  3612   0.563E-02    0.162E-01
RMM:   3    -0.684853084126E+03    0.25040E-03   -0.47802E-04  3712   0.254E-02    0.497E-02
RMM:   4    -0.684853113306E+03   -0.29180E-04   -0.10103E-04  3639   0.130E-02    0.602E-02
RMM:   5    -0.684853096745E+03    0.16560E-04   -0.32330E-05  3385   0.746E-03    0.384E-02
RMM:   6    -0.684853084445E+03    0.12300E-04   -0.17155E-05  2902   0.466E-03    0.115E-02
RMM:   7    -0.684853089752E+03   -0.53071E-05   -0.12721E-05  2797   0.351E-03    0.143E-02
RMM:   8    -0.684853092224E+03   -0.24722E-05   -0.72781E-06  2328   0.247E-03    0.807E-03
RMM:   9    -0.684853093042E+03   -0.81832E-06   -0.37104E-06  1998   0.170E-03
  23 F= -.68485309E+03 E0= -.68465955E+03  d E =0.920462E-03
       N       E                     dE             d eps       ncg     rms          rms(c)
DAV:   1    -0.684839448912E+03    0.13643E-01   -0.65061E+00  3596   0.158E+00    0.345E-01
RMM:   2    -0.684854512912E+03   -0.15064E-01   -0.86352E-02  3645   0.288E-01    0.811E-01
RMM:   3    -0.684848047901E+03    0.64650E-02   -0.14298E-02  3833   0.129E-01    0.276E-01
RMM:   4    -0.684848778077E+03   -0.73018E-03   -0.30095E-03  3871   0.650E-02    0.317E-01
RMM:   5    -0.684848302382E+03    0.47570E-03   -0.90757E-04  3847   0.394E-02    0.208E-01
RMM:   6    -0.684847946626E+03    0.35576E-03   -0.49603E-04  3755   0.245E-02    0.596E-02
RMM:   7    -0.684848092046E+03   -0.14542E-03   -0.36177E-04  4072   0.182E-02    0.771E-02
RMM:   8    -0.684848147567E+03   -0.55520E-04   -0.21834E-04  3905   0.131E-02    0.438E-02
RMM:   9    -0.684848169702E+03   -0.22135E-04   -0.11610E-04  4166   0.894E-03    0.197E-02
RMM:  10    -0.684848221381E+03   -0.51679E-04   -0.70779E-05  3861   0.631E-03    0.202E-02
RMM:  11    -0.684848241385E+03   -0.20004E-04   -0.42130E-05  3039   0.435E-03    0.778E-03
RMM:  12    -0.684848263222E+03   -0.21837E-04   -0.27205E-05  2672   0.339E-03    0.101E-02
RMM:  13    -0.684848294673E+03   -0.31451E-04   -0.18440E-05  2564   0.289E-03    0.713E-03
RMM:  14    -0.684848318131E+03   -0.23458E-04   -0.12037E-05  2468   0.244E-03    0.552E-03
RMM:  15    -0.684848339333E+03   -0.21202E-04   -0.82399E-06  2438   0.210E-03    0.554E-03
RMM:  16    -0.684848357417E+03   -0.18084E-04   -0.63567E-06  2425   0.196E-03    0.242E-03
RMM:  17    -0.684848363437E+03   -0.60195E-05   -0.33324E-06  2070   0.139E-03    0.354E-03
RMM:  18    -0.684848367941E+03   -0.45047E-05   -0.22075E-06  1877   0.118E-03    0.196E-03
RMM:  19    -0.684848369999E+03   -0.20578E-05   -0.13234E-06  1506   0.942E-04    0.144E-03
RMM:  20    -0.684848372391E+03   -0.23917E-05   -0.12935E-06  1841   0.982E-04    0.158E-03
RMM:  21    -0.684848372821E+03   -0.42971E-06   -0.59190E-07  1135   0.727E-04
  24 F= -.68484837E+03 E0= -.68465484E+03  d E =0.472022E-02
       N       E                     dE             d eps       ncg     rms          rms(c)
DAV:   1    -0.684844891177E+03    0.34812E-02   -0.54522E+00  3614   0.148E+00    0.314E-01
RMM:   2    -0.684857376685E+03   -0.12486E-01   -0.72298E-02  3645   0.263E-01    0.780E-01
RMM:   3    -0.684852045795E+03    0.53309E-02   -0.11674E-02  3809   0.117E-01    0.232E-01
RMM:   4    -0.684853027527E+03   -0.98173E-03   -0.24242E-03  3871   0.593E-02    0.318E-01
RMM:   5    -0.684852386210E+03    0.64132E-03   -0.79718E-04  3760   0.355E-02    0.169E-01
RMM:   6    -0.684852196009E+03    0.19020E-03   -0.46727E-04  3761   0.221E-02    0.569E-02
RMM:   7    -0.684852363117E+03   -0.16711E-03   -0.35997E-04  4000   0.173E-02    0.708E-02
RMM:   8    -0.684852424676E+03   -0.61559E-04   -0.20729E-04  3834   0.122E-02    0.355E-02
RMM:   9    -0.684852453111E+03   -0.28434E-04   -0.11188E-04  4090   0.805E-03    0.193E-02
RMM:  10    -0.684852504990E+03   -0.51880E-04   -0.67078E-05  3406   0.547E-03    0.139E-02
RMM:  11    -0.684852525813E+03   -0.20822E-04   -0.41802E-05  2718   0.379E-03    0.712E-03
RMM:  12    -0.684852557978E+03   -0.32165E-04   -0.27336E-05  2598   0.320E-03    0.920E-03
RMM:  13    -0.684852597484E+03   -0.39506E-04   -0.18997E-05  2556   0.282E-03    0.688E-03
RMM:  14    -0.684852628087E+03   -0.30603E-04   -0.12657E-05  2526   0.241E-03    0.486E-03
RMM:  15    -0.684852655681E+03   -0.27594E-04   -0.90899E-06  2445   0.211E-03    0.493E-03
RMM:  16    -0.684852671293E+03   -0.15613E-04   -0.58233E-06  2235   0.169E-03    0.191E-03
RMM:  17    -0.684852686502E+03   -0.15208E-04   -0.41713E-06  2234   0.151E-03    0.307E-03
RMM:  18    -0.684852697822E+03   -0.11320E-04   -0.30549E-06  2049   0.131E-03    0.188E-03
RMM:  19    -0.684852702362E+03   -0.45396E-05   -0.16742E-06  1641   0.101E-03    0.119E-03
RMM:  20    -0.684852706345E+03   -0.39833E-05   -0.14744E-06  1772   0.986E-04    0.111E-03
RMM:  21    -0.684852706896E+03   -0.55080E-06   -0.61677E-07  1165   0.716E-04
  25 F= -.68485271E+03 E0= -.68465916E+03  d E =-.433408E-02
       N       E                     dE             d eps       ncg     rms          rms(c)
DAV:   1    -0.684851656609E+03    0.10497E-02   -0.18741E-01  3728   0.268E-01    0.585E-02
RMM:   2    -0.684852093397E+03   -0.43679E-03   -0.23488E-03  3609   0.484E-02    0.146E-01
RMM:   3    -0.684851889212E+03    0.20418E-03   -0.37943E-04  3674   0.223E-02    0.445E-02
RMM:   4    -0.684851914352E+03   -0.25140E-04   -0.85485E-05  3598   0.117E-02    0.546E-02
RMM:   5    -0.684851901682E+03    0.12670E-04   -0.26224E-05  3274   0.673E-03    0.350E-02
RMM:   6    -0.684851892096E+03    0.95857E-05   -0.14249E-05  2784   0.427E-03    0.107E-02
RMM:   7    -0.684851896753E+03   -0.46567E-05   -0.10261E-05  2637   0.317E-03    0.124E-02
RMM:   8    -0.684851899719E+03   -0.29657E-05   -0.58314E-06  2231   0.222E-03    0.737E-03
RMM:   9    -0.684851900646E+03   -0.92712E-06   -0.30235E-06  1950   0.154E-03
  26 F= -.68485190E+03 E0= -.68465836E+03  d E =0.806250E-03
       N       E                     dE             d eps       ncg     rms          rms(c)
DAV:   1    -0.684849403569E+03    0.24961E-02   -0.67777E-01  3622   0.543E-01    0.110E-01
RMM:   2    -0.684850962672E+03   -0.15591E-02   -0.89854E-03  3639   0.995E-02    0.264E-01
RMM:   3    -0.684850309419E+03    0.65325E-03   -0.14384E-03  3793   0.445E-02    0.842E-02
RMM:   4    -0.684850406218E+03   -0.96799E-04   -0.30271E-04  3803   0.227E-02    0.105E-01
RMM:   5    -0.684850355089E+03    0.51129E-04   -0.10196E-04  3674   0.130E-02    0.635E-02
RMM:   6    -0.684850326960E+03    0.28129E-04   -0.57588E-05  3484   0.828E-03    0.209E-02
RMM:   7    -0.684850347228E+03   -0.20269E-04   -0.41992E-05  3551   0.620E-03    0.244E-02
RMM:   8    -0.684850362565E+03   -0.15337E-04   -0.25507E-05  3123   0.448E-03    0.138E-02
RMM:   9    -0.684850366961E+03   -0.43957E-05   -0.13161E-05  2459   0.297E-03    0.658E-03
RMM:  10    -0.684850376652E+03   -0.96905E-05   -0.81072E-06  2229   0.217E-03    0.591E-03
RMM:  11    -0.684850380802E+03   -0.41501E-05   -0.49047E-06  1975   0.154E-03    0.276E-03
RMM:  12    -0.684850386123E+03   -0.53214E-05   -0.32615E-06  1891   0.127E-03    0.343E-03
RMM:  13    -0.684850392701E+03   -0.65783E-05   -0.23438E-06  1861   0.113E-03    0.284E-03
RMM:  14    -0.684850396455E+03   -0.37533E-05   -0.14634E-06  1644   0.953E-04    0.168E-03
RMM:  15    -0.684850399155E+03   -0.27002E-05   -0.96545E-07  1478   0.827E-04    0.193E-03
RMM:  16    -0.684850401335E+03   -0.21799E-05   -0.73236E-07  1433   0.770E-04    0.734E-04
RMM:  17    -0.684850402282E+03   -0.94755E-06   -0.41669E-07  1191   0.646E-04
  27 F= -.68485040E+03 E0= -.68465686E+03  d E =0.149836E-02
       N       E                     dE             d eps       ncg     rms          rms(c)
DAV:   1    -0.684850953368E+03   -0.55203E-03   -0.77990E-01  3646   0.533E-01    0.118E-01
RMM:   2    -0.684852708980E+03   -0.17556E-02   -0.96741E-03  3639   0.954E-02    0.293E-01
RMM:   3    -0.684851930447E+03    0.77853E-03   -0.15766E-03  3773   0.436E-02    0.872E-02
RMM:   4    -0.684852052759E+03   -0.12231E-03   -0.34611E-04  3793   0.230E-02    0.114E-01
RMM:   5    -0.684851989570E+03    0.63189E-04   -0.11033E-04  3641   0.134E-02    0.673E-02
RMM:   6    -0.684851956903E+03    0.32667E-04   -0.62603E-05  3499   0.850E-03    0.215E-02
RMM:   7    -0.684851979830E+03   -0.22927E-04   -0.46181E-05  3589   0.641E-03    0.255E-02
RMM:   8    -0.684851994747E+03   -0.14917E-04   -0.27027E-05  3121   0.451E-03    0.141E-02
RMM:   9    -0.684851999364E+03   -0.46167E-05   -0.14300E-05  2489   0.301E-03    0.725E-03
RMM:  10    -0.684852008865E+03   -0.95010E-05   -0.86586E-06  2224   0.217E-03    0.581E-03
RMM:  11    -0.684852012409E+03   -0.35441E-05   -0.52738E-06  1947   0.153E-03    0.260E-03
RMM:  12    -0.684852017351E+03   -0.49427E-05   -0.34521E-06  1822   0.125E-03    0.324E-03
RMM:  13    -0.684852024214E+03   -0.68623E-05   -0.24775E-06  1813   0.112E-03    0.251E-03
RMM:  14    -0.684852029198E+03   -0.49841E-05   -0.16656E-06  1658   0.978E-04    0.164E-03
RMM:  15    -0.684852032786E+03   -0.35887E-05   -0.11370E-06  1518   0.860E-04    0.180E-03
RMM:  16    -0.684852034881E+03   -0.20949E-05   -0.74794E-07  1300   0.750E-04    0.683E-04
RMM:  17    -0.684852036035E+03   -0.11541E-05   -0.47711E-07  1230   0.659E-04    0.107E-03
RMM:  18    -0.684852036999E+03   -0.96316E-06   -0.35190E-07  1199   0.619E-04
  28 F= -.68485204E+03 E0= -.68465849E+03  d E =-.163472E-02
       N       E                     dE             d eps       ncg     rms          rms(c)
DAV:   1    -0.684850243977E+03    0.17921E-02   -0.43333E-01  3630   0.418E-01    0.884E-02
RMM:   2    -0.684851232552E+03   -0.98857E-03   -0.55198E-03  3629   0.756E-02    0.216E-01
RMM:   3    -0.684850791494E+03    0.44106E-03   -0.90203E-04  3741   0.343E-02    0.665E-02
RMM:   4    -0.684850852888E+03   -0.61394E-04   -0.19442E-04  3710   0.176E-02    0.839E-02
RMM:   5    -0.684850819065E+03    0.33823E-04   -0.59463E-05  3582   0.101E-02    0.520E-02
RMM:   6    -0.684850797246E+03    0.21819E-04   -0.33699E-05  3241   0.646E-03    0.163E-02
RMM:   7    -0.684850807887E+03   -0.10640E-04   -0.24595E-05  3235   0.482E-03    0.192E-02
RMM:   8    -0.684850813992E+03   -0.61056E-05   -0.14506E-05  2700   0.341E-03    0.112E-02
RMM:   9    -0.684850815867E+03   -0.18750E-05   -0.75037E-06  2234   0.233E-03    0.544E-03
RMM:  10    -0.684850819842E+03   -0.39752E-05   -0.45262E-06  2034   0.168E-03    0.485E-03
RMM:  11    -0.684850821176E+03   -0.13335E-05   -0.27168E-06  1722   0.118E-03    0.191E-03
RMM:  12    -0.684850822741E+03   -0.15653E-05   -0.17442E-06  1414   0.927E-04    0.239E-03
RMM:  13    -0.684850824669E+03   -0.19277E-05   -0.11476E-06  1340   0.807E-04    0.174E-03
RMM:  14    -0.684850826063E+03   -0.13939E-05   -0.75303E-07  1260   0.723E-04    0.121E-03
RMM:  15    -0.684850827318E+03   -0.12554E-05   -0.50547E-07  1163   0.657E-04    0.128E-03
RMM:  16    -0.684850828396E+03   -0.10778E-05   -0.38198E-07  1195   0.629E-04    0.485E-04
RMM:  17    -0.684850828754E+03   -0.35819E-06   -0.24021E-07   883   0.529E-04
  29 F= -.68485083E+03 E0= -.68465729E+03  d E =0.120824E-02
       N       E                     dE             d eps       ncg     rms          rms(c)
DAV:   1    -0.684850027685E+03    0.80071E-03   -0.11600E-01  3600   0.308E-01    0.473E-02
RMM:   2    -0.684850325330E+03   -0.29764E-03   -0.19985E-03  3604   0.571E-02    0.105E-01
RMM:   3    -0.684850229351E+03    0.95979E-04   -0.27827E-04  3681   0.239E-02    0.365E-02
RMM:   4    -0.684850247766E+03   -0.18416E-04   -0.61839E-05  3706   0.117E-02    0.467E-02
RMM:   5    -0.684850234449E+03    0.13318E-04   -0.18411E-05  3170   0.604E-03    0.256E-02
RMM:   6    -0.684850230199E+03    0.42493E-05   -0.11084E-05  2758   0.390E-03    0.112E-02
RMM:   7    -0.684850233799E+03   -0.35993E-05   -0.92585E-06  2706   0.320E-03    0.138E-02
RMM:   8    -0.684850234061E+03   -0.26236E-06   -0.53034E-06  2273   0.246E-03
  30 F= -.68485023E+03 E0= -.68465669E+03  d E =0.594693E-03
       N       E                     dE             d eps       ncg     rms          rms(c)
DAV:   1    -0.684850725869E+03   -0.49207E-03   -0.13090E-01  3626   0.253E-01    0.497E-02
RMM:   2    -0.684851045221E+03   -0.31935E-03   -0.18195E-03  3609   0.466E-02    0.125E-01
RMM:   3    -0.684850901783E+03    0.14344E-03   -0.27888E-04  3647   0.210E-02    0.362E-02
RMM:   4    -0.684850919909E+03   -0.18126E-04   -0.60274E-05  3614   0.107E-02    0.475E-02
RMM:   5    -0.684850906996E+03    0.12913E-04   -0.17460E-05  3096   0.582E-03    0.289E-02
RMM:   6    -0.684850899505E+03    0.74906E-05   -0.10032E-05  2651   0.371E-03    0.936E-03
RMM:   7    -0.684850901598E+03   -0.20926E-05   -0.79311E-06  2524   0.293E-03    0.116E-02
RMM:   8    -0.684850901301E+03    0.29646E-06   -0.42445E-06  2132   0.205E-03
  31 F= -.68485090E+03 E0= -.68465736E+03  d E =-.667240E-03
       N       E                     dE             d eps       ncg     rms          rms(c)
DAV:   1    -0.684850244928E+03    0.65667E-03   -0.88926E-02  3602   0.204E-01    0.411E-02
RMM:   2    -0.684850462364E+03   -0.21744E-03   -0.12041E-03  3588   0.376E-02    0.103E-01
RMM:   3    -0.684850360943E+03    0.10142E-03   -0.18412E-04  3605   0.168E-02    0.303E-02
RMM:   4    -0.684850372912E+03   -0.11969E-04   -0.41886E-05  3496   0.863E-03    0.388E-02
RMM:   5    -0.684850364192E+03    0.87197E-05   -0.11685E-05  2884   0.480E-03    0.246E-02
RMM:   6    -0.684850359193E+03    0.49993E-05   -0.64709E-06  2429   0.306E-03    0.753E-03
RMM:   7    -0.684850360601E+03   -0.14082E-05   -0.49451E-06  2319   0.238E-03    0.928E-03
RMM:   8    -0.684850360658E+03   -0.57084E-07   -0.25982E-06  2014   0.166E-03
  32 F= -.68485036E+03 E0= -.68465682E+03  d E =0.540643E-03
       N       E                     dE             d eps       ncg     rms          rms(c)
DAV:   1    -0.684830667393E+03    0.19693E-01   -0.10327E+01  3596   0.189E+00    0.433E-01
RMM:   2    -0.684853823629E+03   -0.23156E-01   -0.13563E-01  3647   0.344E-01    0.991E-01
RMM:   3    -0.684844224954E+03    0.95987E-02   -0.22753E-02  3838   0.155E-01    0.346E-01
RMM:   4    -0.684845444575E+03   -0.12196E-02   -0.48427E-03  3867   0.795E-02    0.408E-01
RMM:   5    -0.684844567777E+03    0.87680E-03   -0.14592E-03  3833   0.487E-02    0.260E-01
RMM:   6    -0.684844027152E+03    0.54062E-03   -0.82331E-04  3789   0.304E-02    0.732E-02
RMM:   7    -0.684844262306E+03   -0.23515E-03   -0.59691E-04  4120   0.227E-02    0.996E-02
RMM:   8    -0.684844316531E+03   -0.54225E-04   -0.35859E-04  3923   0.164E-02    0.523E-02
RMM:   9    -0.684844352441E+03   -0.35910E-04   -0.19617E-04  4327   0.113E-02    0.245E-02
RMM:  10    -0.684844425494E+03   -0.73053E-04   -0.11830E-04  4232   0.787E-03    0.248E-02
RMM:  11    -0.684844452524E+03   -0.27030E-04   -0.70895E-05  3428   0.540E-03    0.956E-03
RMM:  12    -0.684844482969E+03   -0.30445E-04   -0.45831E-05  2946   0.420E-03    0.126E-02
RMM:  13    -0.684844526636E+03   -0.43668E-04   -0.30612E-05  2801   0.358E-03    0.864E-03
RMM:  14    -0.684844558907E+03   -0.32271E-04   -0.19835E-05  2649   0.300E-03    0.717E-03
RMM:  15    -0.684844589930E+03   -0.31023E-04   -0.13648E-05  2600   0.262E-03    0.659E-03
RMM:  16    -0.684844614833E+03   -0.24903E-04   -0.10078E-05  2556   0.236E-03    0.301E-03
RMM:  17    -0.684844624555E+03   -0.97220E-05   -0.56184E-06  2255   0.171E-03    0.441E-03
RMM:  18    -0.684844631646E+03   -0.70913E-05   -0.36766E-06  2060   0.143E-03    0.225E-03
RMM:  19    -0.684844635025E+03   -0.33793E-05   -0.22516E-06  1719   0.114E-03    0.182E-03
RMM:  20    -0.684844638867E+03   -0.38413E-05   -0.20959E-06  2025   0.119E-03    0.184E-03
RMM:  21    -0.684844639495E+03   -0.62790E-06   -0.99866E-07  1236   0.844E-04
  33 F= -.68484464E+03 E0= -.68465112E+03  d E =0.572116E-02
       N       E                     dE             d eps       ncg     rms          rms(c)
DAV:   1    -0.684787765085E+03    0.56874E-01   -0.31954E+01  3596   0.329E+00    0.779E-01
RMM:   2    -0.684860827539E+03   -0.73062E-01   -0.47070E-01  3662   0.602E-01    0.163E+00
RMM:   3    -0.684835275717E+03    0.25552E-01   -0.80302E-02  3838   0.271E-01    0.639E-01
RMM:   4    -0.684838909316E+03   -0.36336E-02   -0.15809E-02  3872   0.139E-01    0.750E-01
RMM:   5    -0.684835477995E+03    0.34313E-02   -0.46075E-03  3832   0.834E-02    0.453E-01
RMM:   6    -0.684833873612E+03    0.16044E-02   -0.27664E-03  3883   0.519E-02    0.138E-01
RMM:   7    -0.684834575876E+03   -0.70226E-03   -0.20512E-03  4156   0.403E-02    0.195E-01
RMM:   8    -0.684834543734E+03    0.32142E-04   -0.12470E-03  3947   0.295E-02    0.887E-02
RMM:   9    -0.684834653121E+03   -0.10939E-03   -0.68234E-04  4449   0.204E-02    0.446E-02
RMM:  10    -0.684834830770E+03   -0.17765E-03   -0.40347E-04  4718   0.140E-02    0.434E-02
RMM:  11    -0.684834893574E+03   -0.62804E-04   -0.24180E-04  4242   0.945E-03    0.169E-02
RMM:  12    -0.684834963234E+03   -0.69659E-04   -0.15660E-04  4252   0.729E-03    0.230E-02
RMM:  13    -0.684835045825E+03   -0.82591E-04   -0.10125E-04  3696   0.595E-03    0.152E-02
RMM:  14    -0.684835113068E+03   -0.67243E-04   -0.64778E-05  3422   0.501E-03    0.145E-02
RMM:  15    -0.684835198147E+03   -0.85079E-04   -0.45574E-05  3244   0.465E-03    0.118E-02
RMM:  16    -0.684835256978E+03   -0.58831E-04   -0.31624E-05  3013   0.406E-03    0.583E-03
RMM:  17    -0.684835280446E+03   -0.23468E-04   -0.18346E-05  2620   0.285E-03    0.781E-03
RMM:  18    -0.684835296831E+03   -0.16384E-04   -0.11624E-05  2403   0.229E-03    0.365E-03
RMM:  19    -0.684835310943E+03   -0.14112E-04   -0.78937E-06  2415   0.196E-03    0.396E-03
RMM:  20    -0.684835326016E+03   -0.15073E-04   -0.76235E-06  2522   0.212E-03    0.336E-03
RMM:  21    -0.684835327801E+03   -0.17853E-05   -0.34418E-06  1926   0.135E-03    0.131E-03
RMM:  22    -0.684835329064E+03   -0.12625E-05   -0.21517E-06  1481   0.107E-03    0.126E-03
RMM:  23    -0.684835330016E+03   -0.95238E-06   -0.14727E-06  1408   0.946E-04
  34 F= -.68483533E+03 E0= -.68464184E+03  d E =0.930948E-02
       N       E                     dE             d eps       ncg     rms          rms(c)
DAV:   1    -0.684834440792E+03    0.88827E-03   -0.18580E-01  3754   0.369E-01    0.625E-02
RMM:   2    -0.684834943537E+03   -0.50274E-03   -0.30991E-03  3666   0.660E-02    0.150E-01
RMM:   3    -0.684834737892E+03    0.20565E-03   -0.47355E-04  3681   0.292E-02    0.431E-02
RMM:   4    -0.684834772195E+03   -0.34303E-04   -0.12063E-04  3730   0.149E-02    0.586E-02
RMM:   5    -0.684834747980E+03    0.24215E-04   -0.34435E-05  3409   0.749E-03    0.300E-02
RMM:   6    -0.684834742946E+03    0.50344E-05   -0.21454E-05  3132   0.469E-03    0.142E-02
RMM:   7    -0.684834746643E+03   -0.36972E-05   -0.15279E-05  2900   0.378E-03    0.150E-02
RMM:   8    -0.684834747437E+03   -0.79365E-06   -0.94290E-06  2420   0.290E-03
  35 F= -.68483475E+03 E0= -.68464126E+03  d E =0.582580E-03
       N       E                     dE             d eps       ncg     rms          rms(c)
DAV:   1    -0.684834810731E+03   -0.64088E-04   -0.16025E-02  3768   0.188E-01    0.224E-02
RMM:   2    -0.684834870334E+03   -0.59602E-04   -0.44588E-04  3526   0.334E-02    0.440E-02
RMM:   3    -0.684834856690E+03    0.13643E-04   -0.51779E-05  3510   0.128E-02    0.220E-02
RMM:   4    -0.684834857123E+03   -0.43333E-06   -0.14874E-05  3314   0.635E-03    0.214E-02
RMM:   5    -0.684834853658E+03    0.34655E-05   -0.41870E-06  2474   0.345E-03    0.975E-03
RMM:   6    -0.684834853615E+03    0.43019E-07   -0.20432E-06  2118   0.213E-03
  36 F= -.68483485E+03 E0= -.68464136E+03  d E =-.106178E-03
       N       E                     dE             d eps       ncg     rms          rms(c)
DAV:   1    -0.684834676346E+03    0.17731E-03   -0.18927E-02  3676   0.141E-01    0.213E-02
RMM:   2    -0.684834742418E+03   -0.66072E-04   -0.35580E-04  3560   0.243E-02    0.585E-02
RMM:   3    -0.684834711777E+03    0.30641E-04   -0.50957E-05  3410   0.105E-02    0.136E-02
RMM:   4    -0.684834715712E+03   -0.39346E-05   -0.13151E-05  3127   0.536E-03    0.205E-02
RMM:   5    -0.684834713524E+03    0.21872E-05   -0.35187E-06  2203   0.247E-03    0.964E-03
RMM:   6    -0.684834713131E+03    0.39336E-06   -0.21762E-06  2010   0.169E-03
  37 F= -.68483471E+03 E0= -.68464122E+03  d E =0.140484E-03
       N       E                     dE             d eps       ncg     rms          rms(c)
DAV:   1    -0.684833859967E+03    0.85356E-03   -0.19768E-01  3642   0.344E-01    0.597E-02
RMM:   2    -0.684834322283E+03   -0.46232E-03   -0.27949E-03  3629   0.579E-02    0.143E-01
RMM:   3    -0.684834150275E+03    0.17201E-03   -0.43483E-04  3736   0.252E-02    0.423E-02
RMM:   4    -0.684834191665E+03   -0.41390E-04   -0.96332E-05  3811   0.131E-02    0.652E-02
RMM:   5    -0.684834166046E+03    0.25619E-04   -0.33532E-05  3386   0.712E-03    0.290E-02
RMM:   6    -0.684834162094E+03    0.39519E-05   -0.21056E-05  3083   0.470E-03    0.129E-02
RMM:   7    -0.684834173298E+03   -0.11204E-04   -0.16457E-05  3016   0.383E-03    0.148E-02
RMM:   8    -0.684834177469E+03   -0.41716E-05   -0.91018E-06  2436   0.269E-03    0.695E-03
RMM:   9    -0.684834179452E+03   -0.19826E-05   -0.46341E-06  2043   0.179E-03    0.378E-03
RMM:  10    -0.684834183165E+03   -0.37127E-05   -0.27708E-06  1912   0.126E-03    0.281E-03
RMM:  11    -0.684834184600E+03   -0.14355E-05   -0.16864E-06  1483   0.907E-04    0.165E-03
RMM:  12    -0.684834187710E+03   -0.31097E-05   -0.12149E-06  1532   0.847E-04    0.221E-03
RMM:  13    -0.684834189635E+03   -0.19256E-05   -0.77563E-07  1327   0.725E-04    0.131E-03
RMM:  14    -0.684834190769E+03   -0.11337E-05   -0.48347E-07  1097   0.630E-04    0.108E-03
RMM:  15    -0.684834191770E+03   -0.10012E-05   -0.33756E-07  1057   0.591E-04    0.748E-04
RMM:  16    -0.684834192225E+03   -0.45425E-06   -0.21327E-07   920   0.531E-04
  38 F= -.68483419E+03 E0= -.68464070E+03  d E =0.520906E-03
       N       E                     dE             d eps       ncg     rms          rms(c)
DAV:   1    -0.684833344803E+03    0.84697E-03   -0.17890E-01  3618   0.390E-01    0.612E-02
RMM:   2    -0.684833814373E+03   -0.46957E-03   -0.30099E-03  3656   0.668E-02    0.141E-01
RMM:   3    -0.684833639473E+03    0.17490E-03   -0.44685E-04  3647   0.284E-02    0.431E-02
RMM:   4    -0.684833665803E+03   -0.26329E-04   -0.10165E-04  3679   0.141E-02    0.518E-02
RMM:   5    -0.684833643249E+03    0.22553E-04   -0.31271E-05  3403   0.719E-03    0.166E-02
RMM:   6    -0.684833647841E+03   -0.45915E-05   -0.17663E-05  3043   0.424E-03    0.190E-02
RMM:   7    -0.684833651473E+03   -0.36321E-05   -0.11573E-05  2617   0.311E-03    0.157E-02
RMM:   8    -0.684833653368E+03   -0.18950E-05   -0.83064E-06  2422   0.273E-03    0.703E-03
RMM:   9    -0.684833654715E+03   -0.13469E-05   -0.40147E-06  2033   0.182E-03    0.553E-03
RMM:  10    -0.684833656859E+03   -0.21440E-05   -0.23807E-06  1951   0.130E-03    0.331E-03
RMM:  11    -0.684833657430E+03   -0.57072E-06   -0.14021E-06  1570   0.891E-04
  39 F= -.68483366E+03 E0= -.68464017E+03  d E =0.534795E-03
       N       E                     dE             d eps       ncg     rms          rms(c)
DAV:   1    -0.684833109185E+03    0.54767E-03   -0.10483E-01  3626   0.276E-01    0.429E-02
RMM:   2    -0.684833343899E+03   -0.23471E-03   -0.17141E-03  3598   0.502E-02    0.855E-02
RMM:   3    -0.684833292929E+03    0.50971E-04   -0.25571E-04  3699   0.213E-02    0.318E-02
RMM:   4    -0.684833308529E+03   -0.15601E-04   -0.51964E-05  3751   0.102E-02    0.371E-02
RMM:   5    -0.684833298377E+03    0.10152E-04   -0.18108E-05  3021   0.499E-03    0.115E-02
RMM:   6    -0.684833301496E+03   -0.31183E-05   -0.10393E-05  2510   0.311E-03    0.136E-02
RMM:   7    -0.684833307011E+03   -0.55155E-05   -0.81044E-06  2377   0.265E-03    0.107E-02
RMM:   8    -0.684833309607E+03   -0.25957E-05   -0.48524E-06  2201   0.205E-03    0.515E-03
RMM:   9    -0.684833311145E+03   -0.15381E-05   -0.25891E-06  1966   0.142E-03    0.351E-03
RMM:  10    -0.684833313623E+03   -0.24779E-05   -0.15700E-06  1809   0.106E-03    0.200E-03
RMM:  11    -0.684833314431E+03   -0.80817E-06   -0.94397E-07  1306   0.768E-04
  40 F= -.68483331E+03 E0= -.68463982E+03  d E =0.342999E-03
       N       E                     dE             d eps       ncg     rms          rms(c)
DAV:   1    -0.684833216337E+03    0.97285E-04   -0.71101E-03  3728   0.612E-02    0.103E-02
RMM:   2    -0.684833232976E+03   -0.16638E-04   -0.10790E-04  3323   0.114E-02    0.221E-02
RMM:   3    -0.684833229731E+03    0.32449E-05   -0.16611E-05  2624   0.488E-03    0.717E-03
RMM:   4    -0.684833231418E+03   -0.16872E-05   -0.36357E-06  2179   0.261E-03    0.873E-03
RMM:   5    -0.684833231200E+03    0.21792E-06   -0.15149E-06  1966   0.142E-03
  41 F= -.68483323E+03 E0= -.68463974E+03  d E =0.832309E-04
       N       E                     dE             d eps       ncg     rms          rms(c)
DAV:   1    -0.684833121888E+03    0.10953E-03   -0.15920E-02  3618   0.890E-02    0.151E-02
RMM:   2    -0.684833155738E+03   -0.33850E-04   -0.21987E-04  3426   0.157E-02    0.330E-02
RMM:   3    -0.684833149574E+03    0.61646E-05   -0.34504E-05  3001   0.653E-03    0.113E-02
RMM:   4    -0.684833153017E+03   -0.34435E-05   -0.72771E-06  2584   0.348E-03    0.184E-02
RMM:   5    -0.684833151625E+03    0.13918E-05   -0.30496E-06  2098   0.212E-03    0.525E-03
RMM:   6    -0.684833152315E+03   -0.69017E-06   -0.18471E-06  1943   0.145E-03
  42 F= -.68483315E+03 E0= -.68463966E+03  d E =0.788845E-04
       N       E                     dE             d eps       ncg     rms          rms(c)
DAV:   1    -0.684832554214E+03    0.59741E-03   -0.20884E-01  3530   0.523E-01    0.616E-02
RMM:   2    -0.684832984947E+03   -0.43073E-03   -0.43223E-03  3578   0.885E-02    0.652E-02
RMM:   3    -0.684833028036E+03   -0.43089E-04   -0.57054E-04  3846   0.347E-02    0.679E-02
RMM:   4    -0.684833009804E+03    0.18232E-04   -0.83818E-05  3701   0.149E-02    0.433E-02
RMM:   5    -0.684832996345E+03    0.13459E-04   -0.30467E-05  3543   0.750E-03    0.216E-02
RMM:   6    -0.684832996827E+03   -0.48239E-06   -0.16899E-05  3057   0.420E-03    0.180E-02
RMM:   7    -0.684833001259E+03   -0.44322E-05   -0.15504E-05  3074   0.388E-03    0.206E-02
RMM:   8    -0.684833000101E+03    0.11583E-05   -0.10712E-05  2657   0.344E-03    0.763E-03
RMM:   9    -0.684833000737E+03   -0.63547E-06   -0.39819E-06  2110   0.209E-03
  43 F= -.68483300E+03 E0= -.68463951E+03  d E =0.151579E-03
       N       E                     dE             d eps       ncg     rms          rms(c)
DAV:   1    -0.684832447300E+03    0.55280E-03   -0.21191E-01  3532   0.468E-01    0.602E-02
RMM:   2    -0.684832860078E+03   -0.41278E-03   -0.41640E-03  3584   0.810E-02    0.630E-02
RMM:   3    -0.684832916564E+03   -0.56486E-04   -0.58581E-04  3862   0.324E-02    0.697E-02
RMM:   4    -0.684832905555E+03    0.11008E-04   -0.83302E-05  3710   0.141E-02    0.481E-02
RMM:   5    -0.684832889954E+03    0.15601E-04   -0.35798E-05  3505   0.725E-03    0.221E-02
RMM:   6    -0.684832890903E+03   -0.94879E-06   -0.21057E-05  3031   0.448E-03    0.172E-02
RMM:   7    -0.684832898025E+03   -0.71215E-05   -0.17424E-05  3000   0.395E-03    0.188E-02
RMM:   8    -0.684832900018E+03   -0.19931E-05   -0.10960E-05  2552   0.327E-03    0.774E-03
RMM:   9    -0.684832901860E+03   -0.18418E-05   -0.51031E-06  2165   0.218E-03    0.623E-03
RMM:  10    -0.684832903884E+03   -0.20244E-05   -0.29214E-06  2016   0.158E-03    0.295E-03
RMM:  11    -0.684832904677E+03   -0.79260E-06   -0.18280E-06  1691   0.106E-03
  44 F= -.68483290E+03 E0= -.68463940E+03  d E =0.960601E-04
       N       E                     dE             d eps       ncg     rms          rms(c)
DAV:   1    -0.684832299733E+03    0.60415E-03   -0.45946E-01  3582   0.776E-01    0.932E-02
RMM:   2    -0.684833290150E+03   -0.99042E-03   -0.95771E-03  3590   0.132E-01    0.111E-01
RMM:   3    -0.684833335200E+03   -0.45050E-04   -0.12537E-03  3844   0.519E-02    0.949E-02
RMM:   4    -0.684833310806E+03    0.24394E-04   -0.19139E-04  3720   0.225E-02    0.645E-02
RMM:   5    -0.684833281532E+03    0.29274E-04   -0.70152E-05  3677   0.115E-02    0.280E-02
RMM:   6    -0.684833291182E+03   -0.96504E-05   -0.41228E-05  3779   0.668E-03    0.333E-02
RMM:   7    -0.684833300332E+03   -0.91500E-05   -0.29037E-05  3427   0.526E-03    0.312E-02
RMM:   8    -0.684833297294E+03    0.30382E-05   -0.24188E-05  3438   0.509E-03    0.104E-02
RMM:   9    -0.684833298395E+03   -0.11008E-05   -0.90779E-06  2406   0.298E-03    0.789E-03
RMM:  10    -0.684833299705E+03   -0.13103E-05   -0.51363E-06  2075   0.195E-03    0.409E-03
RMM:  11    -0.684833300479E+03   -0.77355E-06   -0.32245E-06  1916   0.136E-03
  45 F= -.68483330E+03 E0= -.68463981E+03  d E =-.395802E-03
       N       E                     dE             d eps       ncg     rms          rms(c)
DAV:   1    -0.684833495025E+03   -0.19532E-03   -0.31422E-02  3642   0.128E-01    0.251E-02
RMM:   2    -0.684833577443E+03   -0.82418E-04   -0.42886E-04  3530   0.218E-02    0.668E-02
RMM:   3    -0.684833537773E+03    0.39669E-04   -0.69069E-05  3454   0.102E-02    0.157E-02
RMM:   4    -0.684833543258E+03   -0.54842E-05   -0.15947E-05  3160   0.545E-03    0.253E-02
RMM:   5    -0.684833539382E+03    0.38752E-05   -0.48972E-06  2287   0.281E-03    0.129E-02
RMM:   6    -0.684833538165E+03    0.12172E-05   -0.32085E-06  2121   0.198E-03    0.476E-03
RMM:   7    -0.684833539272E+03   -0.11066E-05   -0.22464E-06  2050   0.160E-03    0.578E-03
RMM:   8    -0.684833539722E+03   -0.45004E-06   -0.12611E-06  1864   0.115E-03
  46 F= -.68483354E+03 E0= -.68464005E+03  d E =-.239243E-03
       N       E                     dE             d eps       ncg     rms          rms(c)
DAV:   1    -0.684833644268E+03   -0.10500E-03   -0.94920E-03  3548   0.103E-01    0.133E-02
RMM:   2    -0.684833668892E+03   -0.24624E-04   -0.19307E-04  3371   0.178E-02    0.241E-02
RMM:   3    -0.684833665964E+03    0.29285E-05   -0.25692E-05  3097   0.711E-03    0.114E-02
RMM:   4    -0.684833667294E+03   -0.13301E-05   -0.48710E-06  2388   0.328E-03    0.132E-02
RMM:   5    -0.684833666430E+03    0.86419E-06   -0.17222E-06  1986   0.171E-03
  47 F= -.68483367E+03 E0= -.68464018E+03  d E =-.126708E-03
       N       E                     dE             d eps       ncg     rms          rms(c)
DAV:   1    -0.684833739213E+03   -0.71919E-04   -0.70352E-03  3666   0.555E-02    0.113E-02
RMM:   2    -0.684833757504E+03   -0.18292E-04   -0.96443E-05  3311   0.101E-02    0.296E-02
RMM:   3    -0.684833750088E+03    0.74166E-05   -0.15561E-05  2607   0.461E-03    0.648E-03
RMM:   4    -0.684833751733E+03   -0.16450E-05   -0.30935E-06  2197   0.252E-03    0.111E-02
RMM:   5    -0.684833751166E+03    0.56635E-06   -0.11039E-06  1923   0.135E-03
  48 F= -.68483375E+03 E0= -.68464026E+03  d E =-.847369E-04
       N       E                     dE             d eps       ncg     rms          rms(c)
DAV:   1    -0.684833786342E+03   -0.34609E-04   -0.26960E-03  3784   0.382E-02    0.647E-03
RMM:   2    -0.684833793938E+03   -0.75962E-05   -0.40057E-05  2862   0.683E-03    0.171E-02
RMM:   3    -0.684833791707E+03    0.22310E-05   -0.62182E-06  2164   0.301E-03    0.358E-03
RMM:   4    -0.684833792411E+03   -0.70400E-06   -0.12105E-06  1921   0.154E-03
  49 F= -.68483379E+03 E0= -.68464030E+03  d E =-.412449E-04
       N       E                     dE             d eps       ncg     rms          rms(c)
DAV:   1    -0.684834039366E+03   -0.24766E-03   -0.18149E-01  3638   0.254E-01    0.546E-02
RMM:   2    -0.684834428250E+03   -0.38888E-03   -0.22522E-03  3635   0.452E-02    0.133E-01
RMM:   3    -0.684834277840E+03    0.15041E-03   -0.36723E-04  3758   0.205E-02    0.362E-02
RMM:   4    -0.684834317673E+03   -0.39833E-04   -0.77543E-05  3776   0.109E-02    0.609E-02
RMM:   5    -0.684834294721E+03    0.22952E-04   -0.25959E-05  3159   0.600E-03    0.265E-02
RMM:   6    -0.684834291543E+03    0.31788E-05   -0.17331E-05  2891   0.399E-03    0.987E-03
RMM:   7    -0.684834303037E+03   -0.11495E-04   -0.12533E-05  2531   0.307E-03    0.105E-02
RMM:   8    -0.684834305387E+03   -0.23496E-05   -0.61719E-06  2154   0.195E-03    0.475E-03
RMM:   9    -0.684834308331E+03   -0.29436E-05   -0.37961E-06  2016   0.147E-03    0.364E-03
RMM:  10    -0.684834311194E+03   -0.28637E-05   -0.23095E-06  1718   0.105E-03    0.196E-03
RMM:  11    -0.684834312361E+03   -0.11665E-05   -0.14499E-06  1291   0.812E-04    0.145E-03
RMM:  12    -0.684834315575E+03   -0.32143E-05   -0.11282E-06  1555   0.820E-04    0.143E-03
RMM:  13    -0.684834317106E+03   -0.15311E-05   -0.66232E-07  1234   0.685E-04    0.111E-03
RMM:  14    -0.684834318159E+03   -0.10531E-05   -0.46896E-07  1043   0.619E-04    0.792E-04
RMM:  15    -0.684834318778E+03   -0.61916E-06   -0.30359E-07  1002   0.572E-04
  50 F= -.68483432E+03 E0= -.68464083E+03  d E =-.526367E-03
       N       E                     dE             d eps       ncg     rms          rms(c)
DAV:   1    -0.684833806166E+03    0.51199E-03   -0.10749E-01  3646   0.207E-01    0.416E-02
RMM:   2    -0.684834022504E+03   -0.21634E-03   -0.13699E-03  3615   0.371E-02    0.962E-02
RMM:   3    -0.684833946555E+03    0.75949E-04   -0.21673E-04  3706   0.162E-02    0.285E-02
RMM:   4    -0.684833968128E+03   -0.21572E-04   -0.40036E-05  3566   0.828E-03    0.479E-02
RMM:   5    -0.684833950286E+03    0.17842E-04   -0.13642E-05  2774   0.468E-03    0.193E-02
RMM:   6    -0.684833947679E+03    0.26066E-05   -0.87713E-06  2469   0.310E-03    0.762E-03
RMM:   7    -0.684833950019E+03   -0.23394E-05   -0.65200E-06  2200   0.229E-03    0.764E-03
RMM:   8    -0.684833950199E+03   -0.18004E-06   -0.29822E-06  1947   0.144E-03
  51 F= -.68483395E+03 E0= -.68464046E+03  d E =0.368580E-03
       N       E                     dE             d eps       ncg     rms          rms(c)
DAV:   1    -0.684818587132E+03    0.15363E-01   -0.81127E+00  3606   0.191E+00    0.363E-01
RMM:   2    -0.684835097394E+03   -0.16510E-01   -0.11197E-01  3681   0.341E-01    0.789E-01
RMM:   3    -0.684830010279E+03    0.50871E-02   -0.17447E-02  3993   0.143E-01    0.260E-01
RMM:   4    -0.684831692194E+03   -0.16819E-02   -0.32324E-03  4083   0.694E-02    0.417E-01
RMM:   5    -0.684830263349E+03    0.14288E-02   -0.11240E-03  3890   0.408E-02    0.164E-01
RMM:   6    -0.684830175552E+03    0.87797E-04   -0.73064E-04  4134   0.264E-02    0.699E-02
RMM:   7    -0.684830408178E+03   -0.23263E-03   -0.55063E-04  4479   0.202E-02    0.715E-02
RMM:   8    -0.684830430630E+03   -0.22452E-04   -0.26190E-04  4325   0.125E-02    0.275E-02
RMM:   9    -0.684830498480E+03   -0.67850E-04   -0.16044E-04  4557   0.900E-03    0.223E-02
RMM:  10    -0.684830540626E+03   -0.42146E-04   -0.97957E-05  3950   0.611E-03    0.119E-02
RMM:  11    -0.684830564766E+03   -0.24140E-04   -0.62508E-05  2933   0.469E-03    0.938E-03
RMM:  12    -0.684830617227E+03   -0.52461E-04   -0.44136E-05  3034   0.431E-03    0.991E-03
RMM:  13    -0.684830645095E+03   -0.27869E-04   -0.26588E-05  2684   0.335E-03    0.823E-03
RMM:  14    -0.684830678625E+03   -0.33529E-04   -0.18685E-05  2706   0.312E-03    0.768E-03
RMM:  15    -0.684830699006E+03   -0.20381E-04   -0.12135E-05  2509   0.252E-03    0.328E-03
RMM:  16    -0.684830710196E+03   -0.11190E-04   -0.74850E-06  2318   0.195E-03    0.219E-03
RMM:  17    -0.684830724270E+03   -0.14074E-04   -0.55045E-06  2309   0.178E-03    0.289E-03
RMM:  18    -0.684830730314E+03   -0.60443E-05   -0.33668E-06  1876   0.138E-03    0.137E-03
RMM:  19    -0.684830735970E+03   -0.56560E-05   -0.26120E-06  2032   0.132E-03    0.187E-03
RMM:  20    -0.684830737579E+03   -0.16089E-05   -0.15342E-06  1396   0.102E-03    0.628E-04
RMM:  21    -0.684830738181E+03   -0.60190E-06   -0.99193E-07  1165   0.878E-04
  52 F= -.68483074E+03 E0= -.68463726E+03  d E =0.321202E-02
       N       E                     dE             d eps       ncg     rms          rms(c)
DAV:   1    -0.684830562224E+03    0.17536E-03   -0.10297E+00  3648   0.598E-01    0.128E-01
RMM:   2    -0.684832595920E+03   -0.20337E-02   -0.12567E-02  3662   0.108E-01    0.299E-01
RMM:   3    -0.684831859631E+03    0.73629E-03   -0.20499E-03  3891   0.474E-02    0.869E-02
RMM:   4    -0.684832086362E+03   -0.22673E-03   -0.39202E-04  3957   0.243E-02    0.147E-01
RMM:   5    -0.684831927159E+03    0.15920E-03   -0.13045E-04  3727   0.139E-02    0.600E-02
RMM:   6    -0.684831909262E+03    0.17897E-04   -0.82160E-05  3846   0.898E-03    0.229E-02
RMM:   7    -0.684831947873E+03   -0.38611E-04   -0.58908E-05  3814   0.656E-03    0.196E-02
RMM:   8    -0.684831955765E+03   -0.78921E-05   -0.28724E-05  3104   0.393E-03    0.110E-02
RMM:   9    -0.684831968208E+03   -0.12443E-04   -0.17458E-05  2461   0.291E-03    0.807E-03
RMM:  10    -0.684831975080E+03   -0.68717E-05   -0.10593E-05  2198   0.205E-03    0.384E-03
RMM:  11    -0.684831978858E+03   -0.37781E-05   -0.66146E-06  1951   0.150E-03    0.308E-03
RMM:  12    -0.684831989616E+03   -0.10758E-04   -0.49639E-06  2079   0.144E-03    0.304E-03
RMM:  13    -0.684831994575E+03   -0.49584E-05   -0.28602E-06  1747   0.111E-03    0.261E-03
RMM:  14    -0.684832000081E+03   -0.55066E-05   -0.20689E-06  1819   0.103E-03    0.211E-03
RMM:  15    -0.684832003381E+03   -0.32997E-05   -0.13504E-06  1525   0.876E-04    0.127E-03
RMM:  16    -0.684832004658E+03   -0.12766E-05   -0.77486E-07  1184   0.705E-04    0.742E-04
RMM:  17    -0.684832006401E+03   -0.17431E-05   -0.64284E-07  1472   0.715E-04    0.858E-04
RMM:  18    -0.684832006922E+03   -0.52164E-06   -0.34498E-07   941   0.559E-04
  53 F= -.68483201E+03 E0= -.68463852E+03  d E =-.126874E-02
       N       E                     dE             d eps       ncg     rms          rms(c)
DAV:   1    -0.684829402465E+03    0.26039E-02   -0.97452E-01  3638   0.673E-01    0.125E-01
RMM:   2    -0.684831373513E+03   -0.19710E-02   -0.12866E-02  3667   0.118E-01    0.280E-01
RMM:   3    -0.684830726654E+03    0.64686E-03   -0.19802E-03  3922   0.501E-02    0.873E-02
RMM:   4    -0.684830933169E+03   -0.20652E-03   -0.35940E-04  3919   0.248E-02    0.144E-01
RMM:   5    -0.684830772384E+03    0.16079E-03   -0.12586E-04  3732   0.142E-02    0.575E-02
RMM:   6    -0.684830757429E+03    0.14955E-04   -0.79212E-05  3801   0.900E-03    0.230E-02
RMM:   7    -0.684830792357E+03   -0.34929E-04   -0.62221E-05  3789   0.685E-03    0.234E-02
RMM:   8    -0.684830795878E+03   -0.35205E-05   -0.28057E-05  3022   0.409E-03    0.945E-03
RMM:   9    -0.684830804823E+03   -0.89453E-05   -0.16937E-05  2421   0.292E-03    0.713E-03
RMM:  10    -0.684830810600E+03   -0.57767E-05   -0.10276E-05  2198   0.203E-03    0.374E-03
RMM:  11    -0.684830814015E+03   -0.34149E-05   -0.65665E-06  1977   0.158E-03    0.304E-03
RMM:  12    -0.684830822304E+03   -0.82888E-05   -0.48775E-06  2118   0.149E-03    0.351E-03
RMM:  13    -0.684830826211E+03   -0.39078E-05   -0.28288E-06  1811   0.117E-03    0.262E-03
RMM:  14    -0.684830829897E+03   -0.36853E-05   -0.19644E-06  1748   0.105E-03    0.236E-03
RMM:  15    -0.684830832032E+03   -0.21352E-05   -0.12592E-06  1446   0.887E-04    0.101E-03
RMM:  16    -0.684830833101E+03   -0.10693E-05   -0.77880E-07  1178   0.741E-04    0.696E-04
RMM:  17    -0.684830834588E+03   -0.14870E-05   -0.60880E-07  1435   0.742E-04    0.877E-04
RMM:  18    -0.684830835094E+03   -0.50583E-06   -0.37500E-07  1036   0.609E-04
  54 F= -.68483084E+03 E0= -.68463736E+03  d E =0.117183E-02
       N       E                     dE             d eps       ncg     rms          rms(c)
DAV:   1    -0.684827532262E+03    0.33023E-02   -0.12469E+00  3614   0.865E-01    0.142E-01
RMM:   2    -0.684830156187E+03   -0.26239E-02   -0.17782E-02  3661   0.149E-01    0.313E-01
RMM:   3    -0.684829360665E+03    0.79552E-03   -0.26129E-03  3927   0.616E-02    0.103E-01
RMM:   4    -0.684829624480E+03   -0.26382E-03   -0.49086E-04  3981   0.297E-02    0.164E-01
RMM:   5    -0.684829411750E+03    0.21273E-03   -0.16784E-04  3727   0.166E-02    0.643E-02
RMM:   6    -0.684829395642E+03    0.16109E-04   -0.10658E-04  3936   0.106E-02    0.278E-02
RMM:   7    -0.684829440102E+03   -0.44460E-04   -0.85047E-05  3972   0.826E-03    0.278E-02
RMM:   8    -0.684829444257E+03   -0.41549E-05   -0.37833E-05  3377   0.490E-03    0.111E-02
RMM:   9    -0.684829455688E+03   -0.11431E-04   -0.22798E-05  2557   0.343E-03    0.836E-03
RMM:  10    -0.684829463425E+03   -0.77376E-05   -0.13855E-05  2305   0.239E-03    0.455E-03
RMM:  11    -0.684829468008E+03   -0.45828E-05   -0.88580E-06  2108   0.188E-03    0.371E-03
RMM:  12    -0.684829478245E+03   -0.10237E-04   -0.65552E-06  2193   0.175E-03    0.453E-03
RMM:  13    -0.684829483409E+03   -0.51642E-05   -0.38912E-06  1969   0.139E-03    0.309E-03
RMM:  14    -0.684829488568E+03   -0.51595E-05   -0.27001E-06  1941   0.124E-03    0.286E-03
RMM:  15    -0.684829491889E+03   -0.33206E-05   -0.17789E-06  1701   0.106E-03    0.127E-03
RMM:  16    -0.684829493496E+03   -0.16065E-05   -0.10775E-06  1310   0.852E-04    0.825E-04
RMM:  17    -0.684829495463E+03   -0.19678E-05   -0.83189E-07  1533   0.829E-04    0.113E-03
RMM:  18    -0.684829496223E+03   -0.75939E-06   -0.52621E-07  1103   0.687E-04
  55 F= -.68482950E+03 E0= -.68463602E+03  d E =0.133887E-02
       N       E                     dE             d eps       ncg     rms          rms(c)
DAV:   1    -0.684829806359E+03   -0.31090E-03   -0.33544E-01  3648   0.334E-01    0.718E-02
RMM:   2    -0.684830449067E+03   -0.64271E-03   -0.39524E-03  3644   0.591E-02    0.168E-01
RMM:   3    -0.684830217794E+03    0.23127E-03   -0.63423E-04  3796   0.264E-02    0.485E-02
RMM:   4    -0.684830288024E+03   -0.70230E-04   -0.12986E-04  3828   0.140E-02    0.828E-02
RMM:   5    -0.684830239493E+03    0.48531E-04   -0.40749E-05  3448   0.779E-03    0.344E-02
RMM:   6    -0.684830232728E+03    0.67648E-05   -0.26654E-05  3301   0.507E-03    0.125E-02
RMM:   7    -0.684830245397E+03   -0.12669E-04   -0.19475E-05  2678   0.373E-03    0.115E-02
RMM:   8    -0.684830247593E+03   -0.21962E-05   -0.90809E-06  2236   0.228E-03    0.592E-03
RMM:   9    -0.684830251220E+03   -0.36269E-05   -0.55006E-06  2111   0.168E-03    0.430E-03
RMM:  10    -0.684830253146E+03   -0.19259E-05   -0.33085E-06  1803   0.116E-03    0.213E-03
RMM:  11    -0.684830254180E+03   -0.10335E-05   -0.20998E-06  1428   0.901E-04    0.172E-03
RMM:  12    -0.684830256964E+03   -0.27841E-05   -0.15594E-06  1627   0.875E-04    0.173E-03
RMM:  13    -0.684830258083E+03   -0.11197E-05   -0.87104E-07  1215   0.699E-04    0.145E-03
RMM:  14    -0.684830259259E+03   -0.11756E-05   -0.61832E-07  1148   0.659E-04    0.122E-03
RMM:  15    -0.684830259891E+03   -0.63214E-06   -0.39457E-07   983   0.588E-04
  56 F= -.68483026E+03 E0= -.68463679E+03  d E =-.763668E-03
       N       E                     dE             d eps       ncg     rms          rms(c)
DAV:   1    -0.684825692964E+03    0.45663E-02   -0.19649E+00  3630   0.886E-01    0.177E-01
RMM:   2    -0.684829608289E+03   -0.39153E-02   -0.24807E-02  3674   0.156E-01    0.404E-01
RMM:   3    -0.684828218380E+03    0.13899E-02   -0.39193E-03  3912   0.676E-02    0.122E-01
RMM:   4    -0.684828633753E+03   -0.41537E-03   -0.73024E-04  3978   0.338E-02    0.201E-01
RMM:   5    -0.684828322271E+03    0.31148E-03   -0.25039E-04  3790   0.194E-02    0.845E-02
RMM:   6    -0.684828285472E+03    0.36799E-04   -0.16301E-04  3934   0.125E-02    0.312E-02
RMM:   7    -0.684828347930E+03   -0.62458E-04   -0.12214E-04  4206   0.946E-03    0.330E-02
RMM:   8    -0.684828354064E+03   -0.61338E-05   -0.56548E-05  3633   0.557E-03    0.130E-02
RMM:   9    -0.684828370764E+03   -0.16700E-04   -0.34042E-05  2749   0.393E-03    0.101E-02
RMM:  10    -0.684828381531E+03   -0.10767E-04   -0.20714E-05  2439   0.272E-03    0.522E-03
RMM:  11    -0.684828387888E+03   -0.63571E-05   -0.13078E-05  2176   0.210E-03    0.423E-03
RMM:  12    -0.684828403563E+03   -0.15675E-04   -0.95999E-06  2295   0.199E-03    0.452E-03
RMM:  13    -0.684828411757E+03   -0.81938E-05   -0.56599E-06  2101   0.156E-03    0.354E-03
RMM:  14    -0.684828419192E+03   -0.74350E-05   -0.39081E-06  2067   0.137E-03    0.325E-03
RMM:  15    -0.684828423350E+03   -0.41577E-05   -0.24555E-06  1753   0.112E-03    0.161E-03
RMM:  16    -0.684828425624E+03   -0.22737E-05   -0.14889E-06  1423   0.909E-04    0.103E-03
RMM:  17    -0.684828428661E+03   -0.30379E-05   -0.11536E-06  1718   0.896E-04    0.138E-03
RMM:  18    -0.684828429806E+03   -0.11441E-05   -0.69102E-07  1189   0.722E-04    0.631E-04
RMM:  19    -0.684828430456E+03   -0.65021E-06   -0.48148E-07  1093   0.657E-04
  57 F= -.68482843E+03 E0= -.68463496E+03  d E =0.182944E-02
       N       E                     dE             d eps       ncg     rms          rms(c)
DAV:   1    -0.684828197654E+03    0.23215E-03   -0.12645E+00  3638   0.648E-01    0.141E-01
RMM:   2    -0.684830636233E+03   -0.24386E-02   -0.15075E-02  3662   0.114E-01    0.327E-01
RMM:   3    -0.684829748084E+03    0.88815E-03   -0.24324E-03  3884   0.509E-02    0.945E-02
RMM:   4    -0.684830032557E+03   -0.28447E-03   -0.50455E-04  3975   0.267E-02    0.162E-01
RMM:   5    -0.684829840967E+03    0.19159E-03   -0.15935E-04  3785   0.150E-02    0.672E-02
RMM:   6    -0.684829817437E+03    0.23530E-04   -0.10321E-04  3917   0.978E-03    0.244E-02
RMM:   7    -0.684829863636E+03   -0.46199E-04   -0.74141E-05  3979   0.722E-03    0.210E-02
RMM:   8    -0.684829873615E+03   -0.99789E-05   -0.35830E-05  3320   0.428E-03    0.122E-02
RMM:   9    -0.684829888231E+03   -0.14616E-04   -0.21741E-05  2581   0.316E-03    0.887E-03
RMM:  10    -0.684829896293E+03   -0.80620E-05   -0.13198E-05  2270   0.224E-03    0.418E-03
RMM:  11    -0.684829900815E+03   -0.45217E-05   -0.82500E-06  2031   0.165E-03    0.346E-03
RMM:  12    -0.684829913766E+03   -0.12951E-04   -0.62056E-06  2176   0.160E-03    0.343E-03
RMM:  13    -0.684829919765E+03   -0.59995E-05   -0.35519E-06  1863   0.122E-03    0.288E-03
RMM:  14    -0.684829926914E+03   -0.71494E-05   -0.26244E-06  1936   0.115E-03    0.243E-03
RMM:  15    -0.684829931010E+03   -0.40958E-05   -0.16937E-06  1599   0.959E-04    0.131E-03
RMM:  16    -0.684829932615E+03   -0.16050E-05   -0.96923E-07  1238   0.763E-04    0.835E-04
RMM:  17    -0.684829934906E+03   -0.22910E-05   -0.79570E-07  1576   0.772E-04    0.937E-04
RMM:  18    -0.684829935553E+03   -0.64734E-06   -0.43354E-07   996   0.597E-04
[...]
RMM:   5    -0.684814508523E+03    0.98166E-06   -0.32785E-06  2092   0.207E-03
 118 F= -.68481451E+03 E0= -.68462104E+03  d E =0.426483E-04
       N       E                     dE             d eps       ncg     rms          rms(c)
DAV:   1    -0.684814353853E+03    0.15565E-03   -0.44846E-02  3638   0.168E-01    0.305E-02
RMM:   2    -0.684814489517E+03   -0.13566E-03   -0.70701E-04  3601   0.292E-02    0.829E-02
RMM:   3    -0.684814428553E+03    0.60964E-04   -0.10954E-04  3600   0.130E-02    0.223E-02
RMM:   4    -0.684814435588E+03   -0.70348E-05   -0.25313E-05  3366   0.675E-03    0.295E-02
RMM:   5    -0.684814432241E+03    0.33468E-05   -0.93923E-06  2514   0.374E-03    0.157E-02
RMM:   6    -0.684814431044E+03    0.11965E-05   -0.55100E-06  2237   0.246E-03    0.639E-03
RMM:   7    -0.684814434319E+03   -0.32748E-05   -0.45189E-06  2228   0.206E-03    0.781E-03
RMM:   8    -0.684814435339E+03   -0.10202E-05   -0.24213E-06  1986   0.148E-03    0.412E-03
RMM:   9    -0.684814435856E+03   -0.51654E-06   -0.13748E-06  1721   0.106E-03
 119 F= -.68481444E+03 E0= -.68462097E+03  d E =0.726669E-04
       N       E                     dE             d eps       ncg     rms          rms(c)
DAV:   1    -0.684814251022E+03    0.18432E-03   -0.22060E-01  3622   0.374E-01    0.647E-02
RMM:   2    -0.684814723686E+03   -0.47266E-03   -0.33335E-03  3642   0.642E-02    0.134E-01
RMM:   3    -0.684814581804E+03    0.14188E-03   -0.50836E-04  3736   0.276E-02    0.460E-02
RMM:   4    -0.684814614356E+03   -0.32553E-04   -0.99333E-05  3697   0.138E-02    0.633E-02
RMM:   5    -0.684814582363E+03    0.31993E-04   -0.31726E-05  3288   0.719E-03    0.248E-02
RMM:   6    -0.684814579495E+03    0.28680E-05   -0.19955E-05  3038   0.447E-03    0.148E-02
RMM:   7    -0.684814583783E+03   -0.42883E-05   -0.15889E-05  2920   0.376E-03    0.158E-02
RMM:   8    -0.684814583640E+03    0.14296E-06   -0.90259E-06  2367   0.276E-03
 120 F= -.68481458E+03 E0= -.68462112E+03  d E =-.147785E-03
       N       E                     dE             d eps       ncg     rms          rms(c)
DAV:   1    -0.684813721314E+03    0.86247E-03   -0.42730E-01  3614   0.511E-01    0.886E-02
RMM:   2    -0.684814640370E+03   -0.91906E-03   -0.63668E-03  3648   0.883E-02    0.187E-01
RMM:   3    -0.684814356137E+03    0.28423E-03   -0.95656E-04  3765   0.375E-02    0.620E-02
RMM:   4    -0.684814424797E+03   -0.68660E-04   -0.17295E-04  3736   0.184E-02    0.859E-02
RMM:   5    -0.684814363347E+03    0.61449E-04   -0.56891E-05  3488   0.982E-03    0.318E-02
RMM:   6    -0.684814361263E+03    0.20845E-05   -0.36562E-05  3444   0.600E-03    0.199E-02
RMM:   7    -0.684814371243E+03   -0.99802E-05   -0.30007E-05  3332   0.507E-03    0.205E-02
RMM:   8    -0.684814371777E+03   -0.53427E-06   -0.16402E-05  2715   0.361E-03    0.841E-03
RMM:   9    -0.684814373363E+03   -0.15860E-05   -0.81046E-06  2173   0.231E-03    0.545E-03
RMM:  10    -0.684814375535E+03   -0.21714E-05   -0.48305E-06  1991   0.160E-03    0.368E-03
RMM:  11    -0.684814376409E+03   -0.87451E-06   -0.30473E-06  1660   0.117E-03
 121 F= -.68481438E+03 E0= -.68462092E+03  d E =0.207231E-03
       N       E                     dE             d eps       ncg     rms          rms(c)
DAV:   1    -0.684814219222E+03    0.15631E-03   -0.45598E-02  3616   0.166E-01    0.263E-02
RMM:   2    -0.684814315880E+03   -0.96657E-04   -0.69143E-04  3540   0.285E-02    0.536E-02
RMM:   3    -0.684814297903E+03    0.17976E-04   -0.10506E-04  3550   0.120E-02    0.193E-02
RMM:   4    -0.684814304521E+03   -0.66181E-05   -0.18999E-05  3145   0.581E-03    0.230E-02
RMM:   5    -0.684814301442E+03    0.30794E-05   -0.78458E-06  2307   0.293E-03    0.889E-03
RMM:   6    -0.684814302262E+03   -0.81975E-06   -0.49616E-06  2100   0.201E-03
 122 F= -.68481430E+03 E0= -.68462084E+03  d E =0.741475E-04
       N       E                     dE             d eps       ncg     rms          rms(c)
DAV:   1    -0.684814085799E+03    0.21564E-03   -0.26206E-01  3614   0.394E-01    0.674E-02
RMM:   2    -0.684814612964E+03   -0.52717E-03   -0.38509E-03  3629   0.682E-02    0.136E-01
RMM:   3    -0.684814477249E+03    0.13572E-03   -0.57579E-04  3726   0.288E-02    0.500E-02
RMM:   4    -0.684814499582E+03   -0.22333E-04   -0.10250E-04  3643   0.142E-02    0.567E-02
RMM:   5    -0.684814470054E+03    0.29528E-04   -0.35806E-05  3338   0.744E-03    0.162E-02
RMM:   6    -0.684814472446E+03   -0.23927E-05   -0.19526E-05  2930   0.436E-03    0.180E-02
RMM:   7    -0.684814474998E+03   -0.25521E-05   -0.13301E-05  2652   0.319E-03    0.164E-02
RMM:   8    -0.684814474623E+03    0.37512E-06   -0.94817E-06  2336   0.273E-03
 123 F= -.68481447E+03 E0= -.68462101E+03  d E =-.172361E-03
       N       E                     dE             d eps       ncg     rms          rms(c)
DAV:   1    -0.684813137728E+03    0.13373E-02   -0.68931E-01  3614   0.639E-01    0.107E-01
RMM:   2    -0.684814529171E+03   -0.13914E-02   -0.99762E-03  3643   0.109E-01    0.221E-01
RMM:   3    -0.684814165964E+03    0.36321E-03   -0.14589E-03  3790   0.456E-02    0.757E-02
RMM:   4    -0.684814252820E+03   -0.86856E-04   -0.24075E-04  3765   0.219E-02    0.955E-02
RMM:   5    -0.684814177981E+03    0.74839E-04   -0.85401E-05  3562   0.114E-02    0.350E-02
RMM:   6    -0.684814179331E+03   -0.13504E-05   -0.55064E-05  3746   0.707E-03    0.249E-02
RMM:   7    -0.684814197569E+03   -0.18237E-04   -0.46850E-05  3459   0.609E-03    0.234E-02
RMM:   8    -0.684814200243E+03   -0.26741E-05   -0.24035E-05  2919   0.422E-03    0.853E-03
RMM:   9    -0.684814203349E+03   -0.31060E-05   -0.12292E-05  2259   0.262E-03    0.634E-03
RMM:  10    -0.684814207653E+03   -0.43040E-05   -0.73741E-06  2062   0.181E-03    0.341E-03
RMM:  11    -0.684814209569E+03   -0.19162E-05   -0.46934E-06  1774   0.134E-03    0.268E-03
RMM:  12    -0.684814213963E+03   -0.43939E-05   -0.34336E-06  1862   0.123E-03    0.299E-03
RMM:  13    -0.684814215895E+03   -0.19322E-05   -0.20148E-06  1517   0.965E-04    0.221E-03
RMM:  14    -0.684814217756E+03   -0.18607E-05   -0.13428E-06  1328   0.853E-04    0.179E-03
RMM:  15    -0.684814219159E+03   -0.14033E-05   -0.91824E-07  1276   0.775E-04    0.104E-03
RMM:  16    -0.684814219781E+03   -0.62173E-06   -0.57412E-07  1035   0.662E-04
 124 F= -.68481422E+03 E0= -.68462076E+03  d E =0.254842E-03
       N       E                     dE             d eps       ncg     rms          rms(c)
DAV:   1    -0.684814018151E+03    0.20101E-03   -0.82059E-02  3598   0.227E-01    0.365E-02
RMM:   2    -0.684814185016E+03   -0.16686E-03   -0.12190E-03  3558   0.382E-02    0.737E-02
RMM:   3    -0.684814148076E+03    0.36940E-04   -0.17896E-04  3594   0.160E-02    0.263E-02
RMM:   4    -0.684814157758E+03   -0.96815E-05   -0.30109E-05  3473   0.770E-03    0.314E-02
RMM:   5    -0.684814150620E+03    0.71377E-05   -0.11872E-05  2549   0.379E-03    0.121E-02
RMM:   6    -0.684814151024E+03   -0.40419E-06   -0.76164E-06  2315   0.258E-03
 125 F= -.68481415E+03 E0= -.68462069E+03  d E =0.687565E-04
       N       E                     dE             d eps       ncg     rms          rms(c)
DAV:   1    -0.684814153375E+03   -0.27551E-05   -0.25614E-03  3872   0.416E-02    0.987E-03
RMM:   2    -0.684814164952E+03   -0.11577E-04   -0.48139E-05  3294   0.758E-03    0.229E-02
RMM:   3    -0.684814159987E+03    0.49654E-05   -0.84003E-06  2456   0.372E-03    0.100E-02
RMM:   4    -0.684814159796E+03    0.19071E-06   -0.24648E-06  2114   0.205E-03
 126 F= -.68481416E+03 E0= -.68462070E+03  d E =-.877193E-05
       N       E                     dE             d eps       ncg     rms          rms(c)
DAV:   1    -0.684814159176E+03    0.81047E-06   -0.49727E-03  3660   0.514E-02    0.119E-02
RMM:   2    -0.684814180679E+03   -0.21502E-04   -0.74509E-05  3347   0.929E-03    0.394E-02
RMM:   3    -0.684814166943E+03    0.13735E-04   -0.11979E-05  2670   0.470E-03    0.874E-03
RMM:   4    -0.684814166694E+03    0.24948E-06   -0.28835E-06  2314   0.257E-03
 127 F= -.68481417E+03 E0= -.68462071E+03  d E =-.689747E-05
       N       E                     dE             d eps       ncg     rms          rms(c)
DAV:   1    -0.684814155273E+03    0.11670E-04   -0.13949E-02  3598   0.894E-02    0.166E-02
RMM:   2    -0.684814193272E+03   -0.37999E-04   -0.20406E-04  3493   0.155E-02    0.449E-02
RMM:   3    -0.684814176195E+03    0.17078E-04   -0.33081E-05  3226   0.708E-03    0.109E-02
RMM:   4    -0.684814178197E+03   -0.20023E-05   -0.60504E-06  2572   0.364E-03    0.165E-02
RMM:   5    -0.684814176492E+03    0.17044E-05   -0.21591E-06  2108   0.196E-03    0.744E-03
RMM:   6    -0.684814175992E+03    0.50055E-06   -0.12384E-06  1907   0.138E-03
 128 F= -.68481418E+03 E0= -.68462071E+03  d E =-.929827E-05
       N       E                     dE             d eps       ncg     rms          rms(c)
DAV:   1    -0.684814179041E+03   -0.25490E-05   -0.81485E-03  3632   0.720E-02    0.134E-02
RMM:   2    -0.684814200953E+03   -0.21912E-04   -0.13407E-04  3480   0.129E-02    0.307E-02
RMM:   3    -0.684814193368E+03    0.75855E-05   -0.23206E-05  3027   0.579E-03    0.861E-03
RMM:   4    -0.684814194926E+03   -0.15581E-05   -0.43722E-06  2364   0.296E-03    0.131E-02
RMM:   5    -0.684814194070E+03    0.85629E-06   -0.15807E-06  1980   0.160E-03
 129 F= -.68481419E+03 E0= -.68462073E+03  d E =-.180777E-04
       N       E                     dE             d eps       ncg     rms          rms(c)
DAV:   1    -0.684814191533E+03    0.33925E-05   -0.30142E-03  3658   0.384E-02    0.771E-03
RMM:   2    -0.684814196764E+03   -0.52304E-05   -0.39018E-05  2725   0.635E-03    0.136E-02
RMM:   3    -0.684814195794E+03    0.97015E-06   -0.60677E-06  2106   0.279E-03
 130 F= -.68481420E+03 E0= -.68462073E+03  d E =-.172405E-05
       N       E                     dE             d eps       ncg     rms          rms(c)
DAV:   1    -0.684814180476E+03    0.16287E-04   -0.18185E-02  3630   0.999E-02    0.232E-02
RMM:   2    -0.684814261381E+03   -0.80904E-04   -0.28889E-04  3516   0.179E-02    0.756E-02
RMM:   3    -0.684814207612E+03    0.53769E-04   -0.47003E-05  3353   0.908E-03    0.197E-02
RMM:   4    -0.684814206126E+03    0.14858E-05   -0.13318E-05  3011   0.492E-03    0.156E-02
RMM:   5    -0.684814205831E+03    0.29500E-06   -0.46289E-06  2334   0.278E-03
 131 F= -.68481421E+03 E0= -.68462074E+03  d E =-.100377E-04
       N       E                     dE             d eps       ncg     rms          rms(c)
DAV:   1    -0.684814178687E+03    0.27440E-04   -0.22788E-02  3606   0.103E-01    0.197E-02
RMM:   2    -0.684814216304E+03   -0.37617E-04   -0.29585E-04  3459   0.173E-02    0.359E-02
RMM:   3    -0.684814209200E+03    0.71042E-05   -0.47403E-05  3271   0.745E-03    0.152E-02
RMM:   4    -0.684814212539E+03   -0.33389E-05   -0.77550E-06  2773   0.390E-03    0.233E-02
RMM:   5    -0.684814208044E+03    0.44951E-05   -0.25170E-06  2160   0.223E-03    0.814E-03
RMM:   6    -0.684814207330E+03    0.71411E-06   -0.14640E-06  1919   0.150E-03
 132 F= -.68481421E+03 E0= -.68462074E+03  d E =-.149819E-05
       N       E                     dE             d eps       ncg     rms          rms(c)
DAV:   1    -0.684814212944E+03   -0.49007E-05   -0.32666E-03  3628   0.534E-02    0.776E-03
RMM:   2    -0.684814220274E+03   -0.73292E-05   -0.58970E-05  3087   0.922E-03    0.137E-02
RMM:   3    -0.684814219744E+03    0.52961E-06   -0.91427E-06  2288   0.370E-03
 133 F= -.68481422E+03 E0= -.68462076E+03  d E =-.124145E-04
       N       E                     dE             d eps       ncg     rms          rms(c)
DAV:   1    -0.684814082071E+03    0.13820E-03   -0.82175E-02  3622   0.215E-01    0.397E-02
RMM:   2    -0.684814283331E+03   -0.20126E-03   -0.12565E-03  3678   0.387E-02    0.932E-02
RMM:   3    -0.684814212677E+03    0.70653E-04   -0.20586E-04  3739   0.171E-02    0.278E-02
RMM:   4    -0.684814229082E+03   -0.16405E-04   -0.39226E-05  3651   0.862E-03    0.416E-02
RMM:   5    -0.684814217532E+03    0.11550E-04   -0.13842E-05  2750   0.456E-03    0.186E-02
RMM:   6    -0.684814215647E+03    0.18848E-05   -0.90099E-06  2481   0.313E-03    0.850E-03
RMM:   7    -0.684814219866E+03   -0.42191E-05   -0.72446E-06  2394   0.261E-03    0.983E-03
RMM:   8    -0.684814220919E+03   -0.10522E-05   -0.39013E-06  2101   0.188E-03    0.507E-03
RMM:   9    -0.684814221626E+03   -0.70758E-06   -0.22164E-06  1883   0.135E-03
 134 F= -.68481422E+03 E0= -.68462075E+03  d E =-.188227E-05
       N       E                     dE             d eps       ncg     rms          rms(c)
DAV:   1    -0.684814206440E+03    0.14479E-04   -0.27650E-02  3630   0.111E-01    0.225E-02
RMM:   2    -0.684814262650E+03   -0.56210E-04   -0.35477E-04  3500   0.188E-02    0.506E-02
RMM:   3    -0.684814242562E+03    0.20088E-04   -0.57009E-05  3347   0.848E-03    0.156E-02
RMM:   4    -0.684814246705E+03   -0.41428E-05   -0.10321E-05  2913   0.446E-03    0.248E-02
RMM:   5    -0.684814241677E+03    0.50275E-05   -0.31790E-06  2217   0.246E-03    0.117E-02
RMM:   6    -0.684814240604E+03    0.10736E-05   -0.20842E-06  2017   0.172E-03    0.407E-03
RMM:   7    -0.684814240887E+03   -0.28290E-06   -0.16764E-06  1939   0.141E-03
 135 F= -.68481424E+03 E0= -.68462077E+03  d E =-.192603E-04
       N       E                     dE             d eps       ncg     rms          rms(c)
DAV:   1    -0.684814217585E+03    0.23019E-04   -0.10598E-02  3698   0.792E-02    0.132E-02
RMM:   2    -0.684814237540E+03   -0.19955E-04   -0.16360E-04  3391   0.140E-02    0.226E-02
RMM:   3    -0.684814235698E+03    0.18414E-05   -0.26384E-05  2884   0.573E-03    0.115E-02
RMM:   4    -0.684814237491E+03   -0.17930E-05   -0.47660E-06  2371   0.297E-03    0.156E-02
RMM:   5    -0.684814235562E+03    0.19292E-05   -0.20477E-06  1991   0.180E-03    0.528E-03
RMM:   6    -0.684814235405E+03    0.15708E-06   -0.12278E-06  1814   0.124E-03
 136 F= -.68481424E+03 E0= -.68462077E+03  d E =0.548157E-05
       N       E                     dE             d eps       ncg     rms          rms(c)
DAV:   1    -0.684814213902E+03    0.21660E-04   -0.11351E-02  3632   0.692E-02    0.138E-02
RMM:   2    -0.684814238696E+03   -0.24795E-04   -0.15582E-04  3445   0.123E-02    0.317E-02
RMM:   3    -0.684814231175E+03    0.75208E-05   -0.26146E-05  2826   0.542E-03    0.999E-03
RMM:   4    -0.684814233155E+03   -0.19791E-05   -0.51225E-06  2401   0.298E-03    0.152E-02
RMM:   5    -0.684814231719E+03    0.14350E-05   -0.20807E-06  2002   0.178E-03    0.635E-03
RMM:   6    -0.684814231575E+03    0.14484E-06   -0.12823E-06  1794   0.121E-03
 137 F= -.68481423E+03 E0= -.68462077E+03  d E =0.383040E-05
       N       E                     dE             d eps       ncg     rms          rms(c)
DAV:   1    -0.684814166139E+03    0.65580E-04   -0.50946E-02  3606   0.163E-01    0.299E-02
RMM:   2    -0.684814270615E+03   -0.10448E-03   -0.73291E-04  3592   0.291E-02    0.639E-02
RMM:   3    -0.684814241350E+03    0.29265E-04   -0.11520E-04  3610   0.125E-02    0.219E-02
RMM:   4    -0.684814249657E+03   -0.83074E-05   -0.20286E-05  3299   0.631E-03    0.338E-02
RMM:   5    -0.684814240620E+03    0.90374E-05   -0.65259E-06  2408   0.339E-03    0.140E-02
RMM:   6    -0.684814239134E+03    0.14861E-05   -0.42195E-06  2210   0.236E-03    0.573E-03
RMM:   7    -0.684814239844E+03   -0.70979E-06   -0.32745E-06  2105   0.187E-03
 138 F= -.68481424E+03 E0= -.68462077E+03  d E =-.826912E-05
       N       E                     dE             d eps       ncg     rms          rms(c)
DAV:   1    -0.684814245061E+03   -0.59267E-05   -0.42164E-03  3606   0.508E-02    0.948E-03
RMM:   2    -0.684814257075E+03   -0.12015E-04   -0.62291E-05  3233   0.869E-03    0.257E-02
RMM:   3    -0.684814251185E+03    0.58903E-05   -0.92895E-06  2432   0.398E-03    0.588E-03
RMM:   4    -0.684814251504E+03   -0.31863E-06   -0.18951E-06  2103   0.211E-03
 139 F= -.68481425E+03 E0= -.68462079E+03  d E =-.116599E-04
       N       E                     dE             d eps       ncg     rms          rms(c)
DAV:   1    -0.684814252820E+03   -0.16346E-05   -0.12132E-03  3546   0.382E-02    0.647E-03
RMM:   2    -0.684814263173E+03   -0.10353E-04   -0.30235E-05  3098   0.722E-03    0.277E-02
RMM:   3    -0.684814255828E+03    0.73450E-05   -0.41617E-06  2204   0.320E-03    0.634E-03
RMM:   4    -0.684814255615E+03    0.21292E-06   -0.10558E-06  1933   0.168E-03
 140 F= -.68481426E+03 E0= -.68462079E+03  d E =-.411146E-05
       N       E                     dE             d eps       ncg     rms          rms(c)
DAV:   1    -0.684814250580E+03    0.52483E-05   -0.80929E-03  3512   0.106E-01    0.120E-02
RMM:   2    -0.684814269609E+03   -0.19029E-04   -0.18321E-04  3335   0.183E-02    0.141E-02
RMM:   3    -0.684814271234E+03   -0.16255E-05   -0.24679E-05  3062   0.705E-03    0.128E-02
RMM:   4    -0.684814271013E+03    0.22089E-06   -0.34876E-06  2215   0.297E-03
 141 F= -.68481427E+03 E0= -.68462080E+03  d E =-.153982E-04
       N       E                     dE             d eps       ncg     rms          rms(c)
DAV:   1    -0.684814269702E+03    0.15325E-05   -0.31994E-03  3616   0.635E-02    0.781E-03
RMM:   2    -0.684814281808E+03   -0.12106E-04   -0.73379E-05  3211   0.111E-02    0.215E-02
RMM:   3    -0.684814278565E+03    0.32432E-05   -0.97368E-06  2402   0.432E-03    0.725E-03
RMM:   4    -0.684814278626E+03   -0.61136E-07   -0.23665E-06  2057   0.216E-03
 142 F= -.68481428E+03 E0= -.68462081E+03  d E =-.761243E-05
       N       E                     dE             d eps       ncg     rms          rms(c)
DAV:   1    -0.684814192205E+03    0.86360E-04   -0.44835E-02  3502   0.256E-01    0.288E-02
RMM:   2    -0.684814300704E+03   -0.10850E-03   -0.10217E-03  3567   0.436E-02    0.356E-02
RMM:   3    -0.684814306929E+03   -0.62248E-05   -0.13182E-04  3686   0.166E-02    0.308E-02
RMM:   4    -0.684814308521E+03   -0.15919E-05   -0.21756E-05  3413   0.720E-03    0.283E-02
RMM:   5    -0.684814303146E+03    0.53747E-05   -0.85739E-06  2606   0.369E-03    0.125E-02
RMM:   6    -0.684814302845E+03    0.30170E-06   -0.52768E-06  2295   0.254E-03
 143 F= -.68481430E+03 E0= -.68462083E+03  d E =-.242188E-04
       N       E                     dE             d eps       ncg     rms          rms(c)
DAV:   1    -0.684814292985E+03    0.10162E-04   -0.77229E-03  3552   0.106E-01    0.159E-02
RMM:   2    -0.684814331970E+03   -0.38985E-04   -0.19354E-04  3477   0.187E-02    0.449E-02
RMM:   3    -0.684814314230E+03    0.17740E-04   -0.27660E-05  3270   0.795E-03    0.134E-02
RMM:   4    -0.684814314027E+03    0.20330E-06   -0.65615E-06  2632   0.381E-03
 144 F= -.68481431E+03 E0= -.68462083E+03  d E =-.111825E-04
       N       E                     dE             d eps       ncg     rms          rms(c)
DAV:   1    -0.684814228401E+03    0.85829E-04   -0.38180E-02  3500   0.235E-01    0.274E-02
RMM:   2    -0.684814336361E+03   -0.10796E-03   -0.88487E-04  3577   0.403E-02    0.490E-02
RMM:   3    -0.684814326711E+03    0.96503E-05   -0.11418E-04  3663   0.156E-02    0.243E-02
RMM:   4    -0.684814332946E+03   -0.62354E-05   -0.22093E-05  3538   0.708E-03    0.298E-02
RMM:   5    -0.684814327460E+03    0.54863E-05   -0.81327E-06  2557   0.359E-03    0.121E-02
RMM:   6    -0.684814327716E+03   -0.25615E-06   -0.50005E-06  2270   0.247E-03
 145 F= -.68481433E+03 E0= -.68462086E+03  d E =-.136890E-04
       N       E                     dE             d eps       ncg     rms          rms(c)
DAV:   1    -0.684814330489E+03   -0.30292E-05   -0.20048E-03  3702   0.513E-02    0.853E-03
RMM:   2    -0.684814341064E+03   -0.10574E-04   -0.47591E-05  3310   0.961E-03    0.245E-02
RMM:   3    -0.684814335767E+03    0.52969E-05   -0.66044E-06  2526   0.419E-03    0.530E-03
RMM:   4    -0.684814335738E+03    0.28636E-07   -0.14218E-06  2064   0.207E-03
 146 F= -.68481434E+03 E0= -.68462087E+03  d E =-.802194E-05
