srun: ROUTE: split_hostlist: hl=b01r3n19 tree_width 0
 running on    4 total cores
 distrk:  each k-point on    1 cores,    4 groups
 distr:  one band on    1 cores,    1 groups
 HIP runtime initialized ...    4 DCUs will be used
 Created    4 streams on each DCU
 vasp.6.3.2 27Jun22 (build Mar 15 2023 15:45:48) complex                        
  
 POSCAR found type information on POSCAR C F SiK 
 POSCAR found :  4 types and      98 ions
 Reading from existing POTCAR
 scaLAPACK will be used selectively (only on CPU)
 Reading from existing POTCAR
 LDA part: xc-table for Pade appr. of Perdew
 POSCAR found type information on POSCAR C F SiK 
 POSCAR found :  4 types and      98 ions
 Optimize memory usage for KPAR
 POSCAR, INCAR and KPOINTS ok, starting setup
 FFT: planning ... GRIDC
 FFT: planning ... GRID_SOFT
 FFT: planning ... GRID
 WAVECAR not read
 entering main loop
       N       E                     dE             d eps       ncg     rms          rms(c)
DAV:   1     0.224484726453E+04    0.22448E+04   -0.17200E+05  3500   0.138E+03
DAV:   2    -0.463520049212E+03   -0.27084E+04   -0.25874E+04  4506   0.280E+02
DAV:   3    -0.781320303578E+03   -0.31780E+03   -0.31293E+03  4304   0.904E+01
DAV:   4    -0.799573109588E+03   -0.18253E+02   -0.18208E+02  4936   0.227E+01
DAV:   5    -0.800199649488E+03   -0.62654E+00   -0.62612E+00  5168   0.393E+00    0.520E+01
RMM:   6    -0.703767098403E+03    0.96433E+02   -0.30768E+02  3525   0.241E+01    0.278E+01
RMM:   7    -0.688162912365E+03    0.15604E+02   -0.57439E+01  3579   0.136E+01    0.166E+01
RMM:   8    -0.687227130427E+03    0.93578E+00   -0.29525E+01  3830   0.788E+00    0.162E+01
RMM:   9    -0.683082222352E+03    0.41449E+01   -0.53074E+00  3844   0.385E+00    0.111E+01
RMM:  10    -0.686919415414E+03   -0.38372E+01   -0.48858E+00  3674   0.308E+00    0.133E+01
RMM:  11    -0.683993317500E+03    0.29261E+01   -0.12478E+00  3831   0.191E+00    0.113E+01
RMM:  12    -0.681724160622E+03    0.22692E+01   -0.88200E-01  3871   0.120E+00    0.485E+00
RMM:  13    -0.681564822662E+03    0.15934E+00   -0.15412E-01  4818   0.624E-01    0.254E+00
RMM:  14    -0.681595087130E+03   -0.30264E-01   -0.97476E-02  4847   0.405E-01    0.293E+00
RMM:  15    -0.681567166692E+03    0.27920E-01   -0.64873E-02  4945   0.350E-01    0.319E+00
RMM:  16    -0.681464707501E+03    0.10246E+00   -0.75588E-02  4970   0.319E-01    0.175E+00
RMM:  17    -0.681517712620E+03   -0.53005E-01   -0.76916E-02  4832   0.308E-01    0.343E+00
RMM:  18    -0.681357197204E+03    0.16052E+00   -0.79636E-02  4759   0.329E-01    0.132E+00
RMM:  19    -0.681353043920E+03    0.41533E-02   -0.28487E-02  4954   0.207E-01    0.160E+00
RMM:  20    -0.681337384984E+03    0.15659E-01   -0.33290E-02  4810   0.195E-01    0.117E+00
RMM:  21    -0.681336361097E+03    0.10239E-02   -0.14320E-02  4996   0.144E-01    0.116E+00
RMM:  22    -0.681339030115E+03   -0.26690E-02   -0.39839E-02  5165   0.214E-01    0.896E-01
RMM:  23    -0.681335895129E+03    0.31350E-02   -0.87836E-03  5044   0.116E-01    0.398E-01
RMM:  24    -0.681343347770E+03   -0.74526E-02   -0.51654E-03  4948   0.953E-02    0.561E-01
RMM:  25    -0.681345731514E+03   -0.23837E-02   -0.28645E-03  5248   0.779E-02    0.319E-01
RMM:  26    -0.681348144441E+03   -0.24129E-02   -0.14402E-03  5496   0.532E-02    0.304E-01
RMM:  27    -0.681351065960E+03   -0.29215E-02   -0.11018E-03  5292   0.476E-02    0.306E-01
RMM:  28    -0.681351730969E+03   -0.66501E-03   -0.85991E-04  5439   0.400E-02    0.140E-01
RMM:  29    -0.681352844520E+03   -0.11136E-02   -0.49282E-04  5144   0.324E-02    0.135E-01
RMM:  30    -0.681353465187E+03   -0.62067E-03   -0.28872E-04  5469   0.262E-02    0.606E-02
RMM:  31    -0.681353932199E+03   -0.46701E-03   -0.19329E-04  5501   0.197E-02    0.118E-01
RMM:  32    -0.681354163052E+03   -0.23085E-03   -0.10778E-04  5476   0.146E-02    0.107E-01
RMM:  33    -0.681354262469E+03   -0.99417E-04   -0.11429E-04  5320   0.136E-02    0.339E-02
RMM:  34    -0.681354339293E+03   -0.76824E-04   -0.56060E-05  5374   0.101E-02    0.189E-02
RMM:  35    -0.681354436369E+03   -0.97076E-04   -0.41352E-05  4961   0.788E-03    0.144E-02
WARNING in EDDRMM: call to ZHEGV failed, returncode =   6  3      5
RMM:  36    -0.681354486624E+03   -0.50255E-04   -0.27137E-05  4010   0.600E-03    0.912E-03
RMM:  37    -0.681354563393E+03   -0.76769E-04   -0.26806E-05  4218   0.600E-03    0.160E-02
 num prob  num prob  num prob  num prob  num prob  num prob  num prob  num prob RMM:  38    -0.681354590066E+03   -0.26673E-04   -0.15951E-05  3330   0.445E-03    0.117E-02
 num prob  num prob  num prob RMM:  39    -0.681354614128E+03   -0.24061E-04   -0.11284E-05  3343   0.381E-03    0.924E-03
 num prob  num prob  num prob  num prob  num prob  num prob  num prob  num prob  num prob  num prob RMM:  40    -0.681354623154E+03   -0.90265E-05   -0.79907E-06  3030   0.334E-03    0.408E-03
 num prob  num prob  num prob  num prob RMM:  41    -0.681354626415E+03   -0.32610E-05   -0.49276E-06  2842   0.264E-03    0.263E-03
 num prob  num prob  num prob  num prob  num prob  num prob  num prob  num prob RMM:  42    -0.681354628403E+03   -0.19875E-05   -0.36104E-06  2435   0.222E-03    0.144E-03
 num prob  num prob  num prob  num prob  num prob  num prob  num prob  num prob RMM:  43    -0.681354629065E+03   -0.66211E-06   -0.30895E-06  2205   0.198E-03
   1 F= -.68135463E+03 E0= -.68114790E+03  d E =-.681355E+03
 curvature:   0.00 expect dE= 0.000E+00 dE for cont linesearch  0.000E+00
 trial: gam= 0.00000 g(F)=  0.179E+01 g(S)=  0.000E+00 ort = 0.000E+00 (trialstep = 0.100E+01)
 search vector abs. value=  0.179E+01
 bond charge predicted
       N       E                     dE             d eps       ncg     rms          rms(c)
DAV:   1    -0.681195466372E+03    0.15916E+00   -0.24061E+02  3772   0.220E+01    0.357E+00
RMM:   2    -0.682825290738E+03   -0.16298E+01   -0.12672E+01  3739   0.449E+00    0.643E+00
RMM:   3    -0.682550778942E+03    0.27451E+00   -0.22088E+00  4351   0.179E+00    0.394E+00
RMM:   4    -0.682462428349E+03    0.88351E-01   -0.48927E-01  4296   0.881E-01    0.269E+00
RMM:   5    -0.682414433853E+03    0.47994E-01   -0.14248E-01  4620   0.548E-01    0.180E+00
RMM:   6    -0.682394327468E+03    0.20106E-01   -0.69471E-02  4641   0.350E-01    0.101E+00
RMM:   7    -0.682395477751E+03   -0.11503E-02   -0.50723E-02  5192   0.265E-01    0.932E-01
RMM:   8    -0.682390389550E+03    0.50882E-02   -0.56361E-02  4654   0.283E-01    0.620E-01
RMM:   9    -0.682390111770E+03    0.27778E-03   -0.30027E-02  5003   0.205E-01    0.299E-01
RMM:  10    -0.682391478099E+03   -0.13663E-02   -0.18954E-02  5310   0.153E-01    0.158E-01
RMM:  11    -0.682392766031E+03   -0.12879E-02   -0.14497E-02  5803   0.120E-01    0.109E-01
RMM:  12    -0.682393886391E+03   -0.11204E-02   -0.11228E-02  5575   0.102E-01    0.110E-01
RMM:  13    -0.682394734213E+03   -0.84782E-03   -0.89434E-03  5615   0.890E-02    0.866E-02
RMM:  14    -0.682395460771E+03   -0.72656E-03   -0.69346E-03  5848   0.766E-02    0.796E-02
RMM:  15    -0.682396151457E+03   -0.69069E-03   -0.55355E-03  5581   0.701E-02    0.708E-02
RMM:  16    -0.682396723477E+03   -0.57202E-03   -0.44254E-03  5477   0.635E-02    0.683E-02
RMM:  17    -0.682397211896E+03   -0.48842E-03   -0.35697E-03  5393   0.578E-02    0.682E-02
RMM:  18    -0.682397517640E+03   -0.30574E-03   -0.28614E-03  5421   0.504E-02    0.328E-02
WARNING in EDDRMM: call to ZHEGV failed, returncode =   8  4     70
RMM:  19    -0.682397791765E+03   -0.27412E-03   -0.23185E-03  5500   0.433E-02    0.229E-02
RMM:  20    -0.682398133911E+03   -0.34215E-03   -0.19574E-03  5361   0.421E-02    0.333E-02
RMM:  21    -0.682398357534E+03   -0.22362E-03   -0.16034E-03  5314   0.368E-02    0.250E-02
RMM:  22    -0.682398513990E+03   -0.15646E-03   -0.13095E-03  5264   0.327E-02    0.182E-02
 num prob  num prob  num prob  num prob  num prob  num prob  num prob  num prob  num prob  num prob  num prob RMM:  23    -0.682398624667E+03   -0.11068E-03   -0.10770E-03  4608   0.277E-02    0.982E-03
RMM:  24    -0.682398738343E+03   -0.11368E-03   -0.89383E-04  4263   0.252E-02    0.710E-03
 num prob  num prob  num prob  num prob  num prob  num prob  num prob  num prob  num prob  num prob  num prob  num prob RMM:  25    -0.682398829646E+03   -0.91303E-04   -0.75216E-04  3592   0.223E-02    0.721E-03
 num prob  num prob  num prob RMM:  26    -0.682398898270E+03   -0.68623E-04   -0.62928E-04  3285   0.200E-02    0.748E-03
 num prob  num prob  num prob  num prob  num prob  num prob  num prob  num prob  num prob  num prob  num prob RMM:  27    -0.682398961838E+03   -0.63568E-04   -0.53218E-04  3223   0.182E-02    0.747E-03
 num prob RMM:  28    -0.682399025035E+03   -0.63197E-04   -0.44868E-04  3341   0.169E-02    0.596E-03
RMM:  29    -0.682399083903E+03   -0.58867E-04   -0.38128E-04  3486   0.158E-02    0.554E-03
 num prob  num prob  num prob  num prob  num prob  num prob  num prob  num prob RMM:  30    -0.682399123276E+03   -0.39374E-04   -0.32351E-04  3226   0.144E-02    0.323E-03
 num prob WARNING in EDDRMM: call to ZHEGV failed, returncode =   8  4     39
 num prob RMM:  31    -0.682399150680E+03   -0.27404E-04   -0.27564E-04  2775   0.129E-02    0.115E-03
 num prob  num prob  num prob  num prob  num prob  num prob  num prob  num prob RMM:  32    -0.682399174783E+03   -0.24103E-04   -0.23596E-04  2279   0.118E-02    0.207E-03
 num prob  num prob  num prob RMM:  33    -0.682399194860E+03   -0.20077E-04   -0.20263E-04  2108   0.109E-02    0.266E-03
 num prob  num prob  num prob RMM:  34    -0.682399211977E+03   -0.17117E-04   -0.17427E-04  2086   0.101E-02    0.266E-03
 num prob  num prob  num prob RMM:  35    -0.682399226435E+03   -0.14458E-04   -0.14965E-04  1914   0.927E-03    0.276E-03
 num prob  num prob  num prob RMM:  36    -0.682399238899E+03   -0.12463E-04   -0.12914E-04  2050   0.864E-03    0.169E-03
 num prob  num prob RMM:  37    -0.682399249690E+03   -0.10791E-04   -0.11140E-04  2178   0.808E-03    0.778E-04
 num prob RMM:  38    -0.682399258949E+03   -0.92598E-05   -0.96507E-05  1809   0.742E-03    0.150E-03
 num prob RMM:  39    -0.682399266924E+03   -0.79750E-05   -0.84060E-05  1489   0.683E-03    0.652E-04
WARNING in EDDRMM: call to ZHEGV failed, returncode =   6  3     60
RMM:  40    -0.682399273860E+03   -0.69356E-05   -0.73292E-05  1465   0.636E-03    0.173E-03
RMM:  41    -0.682399279905E+03   -0.60448E-05   -0.64058E-05  1417   0.593E-03    0.221E-03
 num prob RMM:  42    -0.682399285166E+03   -0.52615E-05   -0.55958E-05  1399   0.554E-03    0.255E-03
 num prob RMM:  43    -0.682399289745E+03   -0.45784E-05   -0.48991E-05  1374   0.519E-03    0.214E-03
RMM:  44    -0.682399293766E+03   -0.40212E-05   -0.43197E-05  1445   0.489E-03    0.145E-03
RMM:  45    -0.682399297277E+03   -0.35110E-05   -0.37908E-05  1642   0.463E-03    0.637E-05
RMM:  46    -0.682399300352E+03   -0.30750E-05   -0.33208E-05  1369   0.428E-03    0.448E-04
RMM:  47    -0.682399303065E+03   -0.27135E-05   -0.29282E-05  1221   0.397E-03    0.862E-04
RMM:  48    -0.682399305450E+03   -0.23842E-05   -0.25877E-05  1193   0.375E-03    0.564E-04
RMM:  49    -0.682399307563E+03   -0.21132E-05   -0.22989E-05  1180   0.353E-03    0.807E-04
RMM:  50    -0.682399309435E+03   -0.18721E-05   -0.20455E-05  1167   0.334E-03    0.835E-04
RMM:  51    -0.682399311081E+03   -0.16466E-05   -0.18095E-05  1133   0.315E-03    0.122E-03
 num prob RMM:  52    -0.682399312550E+03   -0.14682E-05   -0.16148E-05  1098   0.298E-03    0.145E-03
RMM:  53    -0.682399313857E+03   -0.13074E-05   -0.14443E-05  1088   0.283E-03    0.171E-03
RMM:  54    -0.682399315019E+03   -0.11624E-05   -0.12898E-05  1051   0.268E-03    0.199E-03
RMM:  55    -0.682399316076E+03   -0.10567E-05   -0.11763E-05  1039   0.255E-03    0.223E-03
 num prob RMM:  56    -0.682399316995E+03   -0.91903E-06   -0.10345E-05  1017   0.243E-03    0.246E-03
 num prob RMM:  57    -0.682399317824E+03   -0.82880E-06   -0.93037E-06  1004   0.231E-03
   2 F= -.68239932E+03 E0= -.68219549E+03  d E =-.104469E+01
 trial-energy change:   -1.044689  1 .order   -1.129879   -1.790734   -0.469023
 step:   1.3549(harm=  1.3549)  dis= 0.35286  next Energy=  -682.567727 (dE=-0.121E+01)
 bond charge predicted
       N       E                     dE             d eps       ncg     rms          rms(c)
DAV:   1    -0.682412495209E+03   -0.13178E-01   -0.28873E+01  3864   0.706E+00    0.122E+00
RMM:   2    -0.682621683393E+03   -0.20919E+00   -0.11616E+00  3874   0.143E+00    0.319E+00
RMM:   3    -0.682532278883E+03    0.89405E-01   -0.21042E-01  4307   0.604E-01    0.142E+00
RMM:   4    -0.682519767583E+03    0.12511E-01   -0.47294E-02  4362   0.298E-01    0.845E-01
RMM:   5    -0.682517064441E+03    0.27031E-02   -0.15142E-02  4565   0.187E-01    0.673E-01
RMM:   6    -0.682513152662E+03    0.39118E-02   -0.61642E-03  4456   0.120E-01    0.310E-01
RMM:   7    -0.682513327147E+03   -0.17448E-03   -0.41613E-03  5095   0.861E-02    0.290E-01
RMM:   8    -0.682513043384E+03    0.28376E-03   -0.49218E-03  4501   0.870E-02    0.211E-01
RMM:   9    -0.682512832939E+03    0.21045E-03   -0.21209E-03  4933   0.611E-02    0.587E-02
RMM:  10    -0.682513051453E+03   -0.21851E-03   -0.13795E-03  5428   0.459E-02    0.518E-02
RMM:  11    -0.682513163092E+03   -0.11164E-03   -0.10062E-03  5627   0.350E-02    0.361E-02
RMM:  12    -0.682513264051E+03   -0.10096E-03   -0.80454E-04  5510   0.299E-02    0.298E-02
RMM:  13    -0.682513371872E+03   -0.10782E-03   -0.66523E-04  5327   0.269E-02    0.314E-02
RMM:  14    -0.682513448355E+03   -0.76483E-04   -0.52693E-04  5210   0.234E-02    0.238E-02
RMM:  15    -0.682513530602E+03   -0.82247E-04   -0.42770E-04  5023   0.214E-02    0.207E-02
RMM:  16    -0.682513626595E+03   -0.95993E-04   -0.36028E-04  5018   0.203E-02    0.257E-02
RMM:  17    -0.682513703234E+03   -0.76638E-04   -0.29649E-04  4921   0.185E-02    0.193E-02
RMM:  18    -0.682513740164E+03   -0.36930E-04   -0.23195E-04  4189   0.154E-02    0.136E-02
RMM:  19    -0.682513770406E+03   -0.30243E-04   -0.19108E-04  3669   0.136E-02    0.107E-02
RMM:  20    -0.682513802072E+03   -0.31666E-04   -0.16256E-04  3612   0.127E-02    0.601E-03
RMM:  21    -0.682513837252E+03   -0.35180E-04   -0.13669E-04  3613   0.116E-02    0.980E-03
RMM:  22    -0.682513860213E+03   -0.22961E-04   -0.11349E-04  3469   0.105E-02    0.322E-03
RMM:  23    -0.682513873927E+03   -0.13714E-04   -0.92879E-05  2999   0.896E-03    0.349E-03
RMM:  24    -0.682513887778E+03   -0.13851E-04   -0.78176E-05  2867   0.813E-03    0.253E-03
 num prob  num prob  num prob RMM:  25    -0.682513896992E+03   -0.92144E-05   -0.66067E-05  2367   0.729E-03    0.265E-03
RMM:  26    -0.682513905228E+03   -0.82356E-05   -0.56266E-05  2146   0.668E-03    0.236E-03
 num prob RMM:  27    -0.682513912132E+03   -0.69042E-05   -0.48115E-05  2050   0.617E-03    0.233E-03
RMM:  28    -0.682513920841E+03   -0.87090E-05   -0.41466E-05  2506   0.592E-03    0.161E-03
 num prob RMM:  29    -0.682513927462E+03   -0.66213E-05   -0.35798E-05  2395   0.553E-03    0.182E-03
RMM:  30    -0.682513930897E+03   -0.34349E-05   -0.30596E-05  1707   0.494E-03    0.630E-04
RMM:  31    -0.682513933689E+03   -0.27922E-05   -0.26431E-05  1498   0.456E-03    0.646E-04
 num prob RMM:  32    -0.682513936205E+03   -0.25162E-05   -0.22887E-05  1509   0.428E-03    0.693E-04
RMM:  33    -0.682513938294E+03   -0.20880E-05   -0.19951E-05  1380   0.399E-03    0.941E-04
 num prob RMM:  34    -0.682513940105E+03   -0.18116E-05   -0.17326E-05  1413   0.376E-03    0.711E-04
RMM:  35    -0.682513941677E+03   -0.15718E-05   -0.15282E-05  1278   0.352E-03    0.747E-04
RMM:  36    -0.682513943036E+03   -0.13589E-05   -0.13265E-05  1347   0.334E-03    0.410E-04
RMM:  37    -0.682513944221E+03   -0.11854E-05   -0.11703E-05  1278   0.313E-03    0.330E-04
RMM:  38    -0.682513945251E+03   -0.10300E-05   -0.10333E-05  1159   0.294E-03    0.371E-04
 num prob RMM:  39    -0.682513946160E+03   -0.90838E-06   -0.91684E-06  1100   0.279E-03
   3 F= -.68251395E+03 E0= -.68231107E+03  d E =-.115932E+01
 curvature:  -0.68 expect dE=-0.351E+00 dE for cont linesearch -0.144E-01
 ZBRENT: increasing intervall
 opt :   2.0646  next Energy=  -682.458315 (dE=-0.110E+01)
 bond charge predicted
       N       E                     dE             d eps       ncg     rms          rms(c)
DAV:   1    -0.682139682384E+03    0.37426E+00   -0.11917E+02  3624   0.138E+01    0.244E+00
RMM:   2    -0.682875161641E+03   -0.73548E+00   -0.43989E+00  3689   0.262E+00    0.550E+00
RMM:   3    -0.682600905262E+03    0.27426E+00   -0.75866E-01  4173   0.110E+00    0.292E+00
RMM:   4    -0.682528684329E+03    0.72221E-01   -0.17324E-01  4094   0.546E-01    0.167E+00
RMM:   5    -0.682513161593E+03    0.15523E-01   -0.59016E-02  4356   0.342E-01    0.119E+00
RMM:   6    -0.682502478998E+03    0.10683E-01   -0.22662E-02  4224   0.214E-01    0.670E-01
RMM:   7    -0.682501542814E+03    0.93618E-03   -0.13736E-02  4679   0.146E-01    0.534E-01
RMM:   8    -0.682500829057E+03    0.71376E-03   -0.15862E-02  4439   0.149E-01    0.461E-01
RMM:   9    -0.682499311097E+03    0.15180E-02   -0.74440E-03  4537   0.107E-01    0.134E-01
RMM:  10    -0.682499940506E+03   -0.62941E-03   -0.45196E-03  5083   0.792E-02    0.996E-02
WARNING in EDDRMM: call to ZHEGV failed, returncode =   8  4     66
RMM:  11    -0.682500241959E+03   -0.30145E-03   -0.30907E-03  5490   0.564E-02    0.702E-02
RMM:  12    -0.682500538730E+03   -0.29677E-03   -0.23713E-03  5300   0.468E-02    0.611E-02
RMM:  13    -0.682500794265E+03   -0.25553E-03   -0.18477E-03  5378   0.405E-02    0.601E-02
RMM:  14    -0.682500998710E+03   -0.20445E-03   -0.14537E-03  5464   0.355E-02    0.502E-02
RMM:  15    -0.682501195048E+03   -0.19634E-03   -0.11622E-03  5262   0.323E-02    0.344E-02
RMM:  16    -0.682501427359E+03   -0.23231E-03   -0.97105E-04  5198   0.304E-02    0.516E-02
RMM:  17    -0.682501622979E+03   -0.19562E-03   -0.82061E-04  5140   0.296E-02    0.377E-02
RMM:  18    -0.682501712505E+03   -0.89526E-04   -0.62903E-04  5021   0.240E-02    0.239E-02
RMM:  19    -0.682501791498E+03   -0.78993E-04   -0.51192E-04  4935   0.205E-02    0.209E-02
RMM:  20    -0.682501866360E+03   -0.74863E-04   -0.43260E-04  4710   0.187E-02    0.123E-02
RMM:  21    -0.682501948334E+03   -0.81974E-04   -0.36990E-04  4739   0.175E-02    0.187E-02
RMM:  22    -0.682502007713E+03   -0.59379E-04   -0.31956E-04  4549   0.164E-02    0.713E-03
 num prob RMM:  23    -0.682502041343E+03   -0.33630E-04   -0.25819E-04  3424   0.133E-02    0.518E-03
RMM:  24    -0.682502085962E+03   -0.44619E-04   -0.21858E-04  3357   0.121E-02    0.418E-03
 num prob RMM:  25    -0.682502116896E+03   -0.30934E-04   -0.18764E-04  2975   0.106E-02    0.401E-03
RMM:  26    -0.682502148908E+03   -0.32012E-04   -0.16153E-04  2914   0.980E-03    0.333E-03
RMM:  27    -0.682502169996E+03   -0.21088E-04   -0.13941E-04  2535   0.886E-03    0.340E-03
WARNING in EDDRMM: call to ZHEGV failed, returncode =   6  3     49
RMM:  28    -0.682502192340E+03   -0.22344E-04   -0.12135E-04  2829   0.850E-03    0.143E-03
RMM:  29    -0.682502205003E+03   -0.12663E-04   -0.10452E-04  2125   0.752E-03    0.126E-03
RMM:  30    -0.682502215552E+03   -0.10549E-04   -0.90587E-05  1874   0.691E-03    0.134E-03
RMM:  31    -0.682502224707E+03   -0.91552E-05   -0.78908E-05  1813   0.641E-03    0.113E-03
RMM:  32    -0.682502232291E+03   -0.75838E-05   -0.68709E-05  1647   0.594E-03    0.131E-03
 num prob RMM:  33    -0.682502238890E+03   -0.65992E-05   -0.59924E-05  1689   0.555E-03    0.117E-03
RMM:  34    -0.682502244616E+03   -0.57263E-05   -0.52312E-05  1544   0.518E-03    0.466E-04
 num prob RMM:  35    -0.682502249565E+03   -0.49489E-05   -0.45747E-05  1503   0.484E-03    0.294E-04
RMM:  36    -0.682502253866E+03   -0.43015E-05   -0.40150E-05  1338   0.451E-03    0.400E-04
RMM:  37    -0.682502257624E+03   -0.37571E-05   -0.35232E-05  1224   0.422E-03    0.682E-04
RMM:  38    -0.682502260926E+03   -0.33022E-05   -0.31009E-05  1180   0.397E-03    0.964E-04
RMM:  39    -0.682502263830E+03   -0.29041E-05   -0.27263E-05  1110   0.372E-03    0.158E-03
RMM:  40    -0.682502266384E+03   -0.25538E-05   -0.24004E-05  1087   0.351E-03    0.208E-03
RMM:  41    -0.682502268629E+03   -0.22451E-05   -0.21134E-05  1069   0.331E-03    0.239E-03
RMM:  42    -0.682502270609E+03   -0.19800E-05   -0.18712E-05  1033   0.312E-03    0.252E-03
RMM:  43    -0.682502272359E+03   -0.17504E-05   -0.16491E-05  1021   0.295E-03    0.296E-03
RMM:  44    -0.682502273911E+03   -0.15520E-05   -0.14608E-05  1005   0.279E-03    0.343E-03
RMM:  45    -0.682502275278E+03   -0.13664E-05   -0.12880E-05  1000   0.264E-03    0.378E-03
RMM:  46    -0.682502276472E+03   -0.11940E-05   -0.11440E-05   958   0.251E-03    0.359E-03
RMM:  47    -0.682502277523E+03   -0.10508E-05   -0.10123E-05   977   0.239E-03    0.336E-03
RMM:  48    -0.682502278449E+03   -0.92647E-06   -0.89809E-06  1034   0.228E-03
   4 F= -.68250228E+03 E0= -.68230120E+03  d E =-.114765E+01
 curvature:   2.61 expect dE= 0.286E+01 dE for cont linesearch  0.550E-01
 trial: gam= 0.71984 g(F)=  0.109E+01 g(S)=  0.000E+00 ort =-0.194E+00 (trialstep = 0.121E+01)
 search vector abs. value=  0.174E+01
 bond charge predicted
       N       E                     dE             d eps       ncg     rms          rms(c)
DAV:   1    -0.681883996328E+03    0.61828E+00   -0.35679E+02  3612   0.293E+01    0.343E+00
RMM:   2    -0.683069174280E+03   -0.11852E+01   -0.12152E+01  3615   0.516E+00    0.571E+00
RMM:   3    -0.682978163551E+03    0.91011E-01   -0.17945E+00  3923   0.186E+00    0.308E+00
RMM:   4    -0.682965547890E+03    0.12616E-01   -0.36965E-01  4004   0.848E-01    0.281E+00
RMM:   5    -0.682888398315E+03    0.77150E-01   -0.92693E-02  3982   0.437E-01    0.175E+00
RMM:   6    -0.682869779710E+03    0.18619E-01   -0.52302E-02  3954   0.309E-01    0.119E+00
RMM:   7    -0.682858364499E+03    0.11415E-01   -0.48002E-02  3925   0.282E-01    0.966E-01
RMM:   8    -0.682855292714E+03    0.30718E-02   -0.26662E-02  3972   0.212E-01    0.831E-01
RMM:   9    -0.682851137324E+03    0.41554E-02   -0.17501E-02  3969   0.185E-01    0.405E-01
RMM:  10    -0.682850540165E+03    0.59716E-03   -0.66979E-03  4695   0.107E-01    0.185E-01
RMM:  11    -0.682850803735E+03   -0.26357E-03   -0.35978E-03  4767   0.679E-02    0.150E-01
RMM:  12    -0.682850950114E+03   -0.14638E-03   -0.25215E-03  4820   0.531E-02    0.120E-01
RMM:  13    -0.682851182616E+03   -0.23250E-03   -0.18697E-03  4631   0.465E-02    0.922E-02
RMM:  14    -0.682851393582E+03   -0.21097E-03   -0.13542E-03  4687   0.383E-02    0.644E-02
RMM:  15    -0.682851550547E+03   -0.15697E-03   -0.97374E-04  5155   0.302E-02    0.526E-02
RMM:  16    -0.682851805128E+03   -0.25458E-03   -0.81903E-04  4806   0.308E-02    0.577E-02
RMM:  17    -0.682851961112E+03   -0.15598E-03   -0.63616E-04  4817   0.269E-02    0.414E-02
RMM:  18    -0.682852092113E+03   -0.13100E-03   -0.47690E-04  4785   0.223E-02    0.378E-02
RMM:  19    -0.682852217552E+03   -0.12544E-03   -0.41702E-04  4781   0.219E-02    0.295E-02
RMM:  20    -0.682852282580E+03   -0.65028E-04   -0.30929E-04  4751   0.170E-02    0.231E-02
RMM:  21    -0.682852409328E+03   -0.12675E-03   -0.31885E-04  4964   0.204E-02    0.222E-02
RMM:  22    -0.682852455609E+03   -0.46281E-04   -0.21921E-04  4626   0.141E-02    0.179E-02
RMM:  23    -0.682852490477E+03   -0.34868E-04   -0.18436E-04  4155   0.127E-02    0.648E-03
RMM:  24    -0.682852514959E+03   -0.24482E-04   -0.15188E-04  3277   0.104E-02    0.510E-03
RMM:  25    -0.682852542121E+03   -0.27162E-04   -0.12955E-04  3028   0.925E-03    0.480E-03
RMM:  26    -0.682852561830E+03   -0.19710E-04   -0.11236E-04  2688   0.827E-03    0.293E-03
RMM:  27    -0.682852580686E+03   -0.18856E-04   -0.97958E-05  2501   0.754E-03    0.284E-03
RMM:  28    -0.682852603607E+03   -0.22921E-04   -0.86391E-05  2508   0.712E-03    0.201E-03
RMM:  29    -0.682852623414E+03   -0.19807E-04   -0.76478E-05  2614   0.680E-03    0.344E-03
RMM:  30    -0.682852636882E+03   -0.13468E-04   -0.67591E-05  2398   0.634E-03    0.995E-04
RMM:  31    -0.682852643690E+03   -0.68077E-05   -0.58871E-05  1711   0.561E-03    0.623E-04
RMM:  32    -0.682852650445E+03   -0.67550E-05   -0.52142E-05  1757   0.529E-03    0.576E-04
RMM:  33    -0.682852655845E+03   -0.54000E-05   -0.46195E-05  1519   0.493E-03    0.690E-04
RMM:  34    -0.682852660427E+03   -0.45820E-05   -0.40952E-05  1316   0.461E-03    0.610E-04
RMM:  35    -0.682852664443E+03   -0.40166E-05   -0.36369E-05  1200   0.434E-03    0.760E-04
RMM:  36    -0.682852667991E+03   -0.35474E-05   -0.32374E-05  1078   0.409E-03    0.128E-03
RMM:  37    -0.682852671220E+03   -0.32297E-05   -0.28859E-05  1299   0.392E-03    0.517E-04
RMM:  38    -0.682852674047E+03   -0.28262E-05   -0.25726E-05  1106   0.369E-03    0.552E-04
RMM:  39    -0.682852676561E+03   -0.25139E-05   -0.22946E-05  1044   0.350E-03    0.666E-04
RMM:  40    -0.682852678806E+03   -0.22456E-05   -0.20510E-05   987   0.332E-03    0.888E-04
RMM:  41    -0.682852680813E+03   -0.20067E-05   -0.18349E-05   976   0.316E-03    0.124E-03
RMM:  42    -0.682852682609E+03   -0.17964E-05   -0.16426E-05   952   0.301E-03    0.151E-03
RMM:  43    -0.682852684221E+03   -0.16118E-05   -0.14746E-05   934   0.287E-03    0.181E-03
RMM:  44    -0.682852685659E+03   -0.14376E-05   -0.13210E-05   917   0.274E-03    0.183E-03
RMM:  45    -0.682852686943E+03   -0.12847E-05   -0.11843E-05   923   0.262E-03    0.173E-03
RMM:  46    -0.682852688097E+03   -0.11541E-05   -0.10644E-05   935   0.250E-03    0.162E-03
RMM:  47    -0.682852689139E+03   -0.10416E-05   -0.95837E-06   888   0.239E-03    0.176E-03
RMM:  48    -0.682852690057E+03   -0.91756E-06   -0.86302E-06   971   0.231E-03
   5 F= -.68285269E+03 E0= -.68265424E+03  d E =-.350412E+00
 trial-energy change:   -0.350412  1 .order   -0.415131   -1.158347    0.328085
 step:   0.8824(harm=  0.9452)  dis= 0.18574  next Energy=  -682.898703 (dE=-0.396E+00)
 bond charge predicted
       N       E                     dE             d eps       ncg     rms          rms(c)
DAV:   1    -0.682852476477E+03    0.21266E-03   -0.26065E+01  3684   0.796E+00    0.824E-01
RMM:   2    -0.682922257511E+03   -0.69781E-01   -0.57142E-01  3581   0.120E+00    0.157E+00
RMM:   3    -0.682904325947E+03    0.17932E-01   -0.89882E-02  3925   0.456E-01    0.835E-01
RMM:   4    -0.682902517298E+03    0.18086E-02   -0.19687E-02  3995   0.211E-01    0.737E-01
RMM:   5    -0.682899284876E+03    0.32324E-02   -0.69441E-03  3859   0.126E-01    0.538E-01
RMM:   6    -0.682896612527E+03    0.26723E-02   -0.34643E-03  3817   0.884E-02    0.221E-01
RMM:   7    -0.682898216275E+03   -0.16037E-02   -0.40946E-03  4130   0.806E-02    0.408E-01
RMM:   8    -0.682896629819E+03    0.15865E-02   -0.15949E-03  3916   0.553E-02    0.928E-02
RMM:   9    -0.682896755486E+03   -0.12567E-03   -0.66025E-04  4387   0.359E-02    0.756E-02
RMM:  10    -0.682896818598E+03   -0.63112E-04   -0.28591E-04  4501   0.214E-02    0.402E-02
RMM:  11    -0.682896901126E+03   -0.82528E-04   -0.18008E-04  4357   0.147E-02    0.361E-02
RMM:  12    -0.682897030954E+03   -0.12983E-03   -0.14250E-04  4123   0.130E-02    0.287E-02
RMM:  13    -0.682897144257E+03   -0.11330E-03   -0.10710E-04  4149   0.113E-02    0.177E-02
RMM:  14    -0.682897223136E+03   -0.78879E-04   -0.70692E-05  3848   0.834E-03    0.152E-02
RMM:  15    -0.682897293523E+03   -0.70387E-04   -0.53009E-05  3413   0.697E-03    0.121E-02
RMM:  16    -0.682897428685E+03   -0.13516E-03   -0.51677E-05  3951   0.761E-03    0.149E-02
RMM:  17    -0.682897637745E+03   -0.20906E-03   -0.66746E-05  4225   0.865E-03    0.133E-02
RMM:  18    -0.682897705484E+03   -0.67740E-04   -0.34526E-05  3426   0.606E-03    0.673E-03
RMM:  19    -0.682897757222E+03   -0.51738E-04   -0.25648E-05  3245   0.526E-03    0.590E-03
RMM:  20    -0.682897793588E+03   -0.36365E-04   -0.20099E-05  3052   0.465E-03    0.554E-03
RMM:  21    -0.682897860206E+03   -0.66618E-04   -0.25914E-05  3366   0.529E-03    0.667E-03
RMM:  22    -0.682897882966E+03   -0.22760E-04   -0.16390E-05  3000   0.412E-03    0.216E-03
RMM:  23    -0.682897889999E+03   -0.70334E-05   -0.10361E-05  2428   0.317E-03    0.245E-03
RMM:  24    -0.682897899782E+03   -0.97828E-05   -0.91311E-06  2518   0.303E-03    0.135E-03
RMM:  25    -0.682897905662E+03   -0.58802E-05   -0.76071E-06  2058   0.264E-03    0.104E-03
RMM:  26    -0.682897909298E+03   -0.36361E-05   -0.65088E-06  1641   0.237E-03    0.837E-04
RMM:  27    -0.682897911809E+03   -0.25101E-05   -0.56555E-06  1457   0.220E-03    0.797E-04
RMM:  28    -0.682897918661E+03   -0.68521E-05   -0.59345E-06  2247   0.244E-03    0.875E-04
RMM:  29    -0.682897919978E+03   -0.13176E-05   -0.46131E-06  1520   0.203E-03    0.514E-04
RMM:  30    -0.682897920566E+03   -0.58747E-06   -0.39987E-06  1220   0.185E-03
   6 F= -.68289792E+03 E0= -.68269862E+03  d E =-.395642E+00
 curvature:  -0.82 expect dE=-0.206E+00 dE for cont linesearch -0.476E-05
 trial: gam= 0.20530 g(F)=  0.252E+00 g(S)=  0.000E+00 ort = 0.319E-02 (trialstep = 0.115E+01)
 search vector abs. value=  0.327E+00
 bond charge predicted
       N       E                     dE             d eps       ncg     rms          rms(c)
DAV:   1    -0.683007789670E+03   -0.10987E+00   -0.70778E+01  3572   0.151E+01    0.186E+00
RMM:   2    -0.683293736870E+03   -0.28595E+00   -0.20766E+00  3560   0.242E+00    0.435E+00
RMM:   3    -0.683134338054E+03    0.15940E+00   -0.24433E-01  3763   0.861E-01    0.122E+00
RMM:   4    -0.683128866952E+03    0.54711E-02   -0.52688E-02  3982   0.378E-01    0.102E+00
RMM:   5    -0.683119698496E+03    0.91685E-02   -0.14060E-02  4062   0.182E-01    0.638E-01
RMM:   6    -0.683121829422E+03   -0.21309E-02   -0.88362E-03  4008   0.128E-01    0.839E-01
RMM:   7    -0.683115640089E+03    0.61893E-02   -0.77396E-03  4026   0.118E-01    0.523E-01
RMM:   8    -0.683114909193E+03    0.73090E-03   -0.51367E-03  4059   0.912E-02    0.436E-01
RMM:   9    -0.683113936051E+03    0.97314E-03   -0.21197E-03  3889   0.710E-02    0.260E-01
RMM:  10    -0.683113346558E+03    0.58949E-03   -0.64742E-04  4237   0.392E-02    0.842E-02
RMM:  11    -0.683113437673E+03   -0.91115E-04   -0.33928E-04  4320   0.267E-02    0.789E-02
RMM:  12    -0.683113454405E+03   -0.16732E-04   -0.24809E-04  4369   0.203E-02    0.581E-02
RMM:  13    -0.683113460687E+03   -0.62822E-05   -0.11773E-04  4815   0.141E-02    0.376E-02
RMM:  14    -0.683113489986E+03   -0.29298E-04   -0.66810E-05  4380   0.984E-03    0.257E-02
RMM:  15    -0.683113508468E+03   -0.18482E-04   -0.47540E-05  4203   0.752E-03    0.156E-02
RMM:  16    -0.683113547882E+03   -0.39414E-04   -0.38165E-05  4112   0.700E-03    0.189E-02
RMM:  17    -0.683113580001E+03   -0.32119E-04   -0.29198E-05  3731   0.624E-03    0.102E-02
RMM:  18    -0.683113596138E+03   -0.16136E-04   -0.20482E-05  3215   0.479E-03    0.890E-03
RMM:  19    -0.683113622298E+03   -0.26160E-04   -0.17366E-05  3180   0.441E-03    0.860E-03
RMM:  20    -0.683113643245E+03   -0.20948E-04   -0.14489E-05  3077   0.405E-03    0.469E-03
RMM:  21    -0.683113657333E+03   -0.14088E-04   -0.11427E-05  2817   0.347E-03    0.644E-03
RMM:  22    -0.683113670427E+03   -0.13094E-04   -0.10973E-05  2937   0.350E-03    0.311E-03
RMM:  23    -0.683113675474E+03   -0.50468E-05   -0.74530E-06  2455   0.267E-03    0.353E-03
RMM:  24    -0.683113681643E+03   -0.61689E-05   -0.69089E-06  2564   0.263E-03    0.210E-03
RMM:  25    -0.683113683900E+03   -0.22573E-05   -0.51001E-06  1960   0.206E-03    0.155E-03
RMM:  26    -0.683113686739E+03   -0.28394E-05   -0.43790E-06  2019   0.194E-03    0.158E-03
RMM:  27    -0.683113688131E+03   -0.13921E-05   -0.35828E-06  1577   0.167E-03    0.918E-04
RMM:  28    -0.683113689981E+03   -0.18499E-05   -0.30854E-06  1534   0.157E-03    0.978E-04
RMM:  29    -0.683113691693E+03   -0.17116E-05   -0.27892E-06  1608   0.153E-03    0.519E-04
RMM:  30    -0.683113692362E+03   -0.66948E-06   -0.23261E-06  1230   0.136E-03
   7 F= -.68311369E+03 E0= -.68291547E+03  d E =-.215772E+00
 trial-energy change:   -0.215772  1 .order   -0.216630   -0.289943   -0.143318
 step:   2.3549(harm=  2.2678)  dis= 0.19856  next Energy=  -683.188176 (dE=-0.290E+00)
 bond charge predicted
       N       E                     dE             d eps       ncg     rms          rms(c)
DAV:   1    -0.683065018842E+03    0.48673E-01   -0.78201E+01  3544   0.160E+01    0.186E+00
RMM:   2    -0.683317822917E+03   -0.25280E+00   -0.22493E+00  3559   0.255E+00    0.371E+00
RMM:   3    -0.683212960960E+03    0.10486E+00   -0.25988E-01  3793   0.908E-01    0.127E+00
RMM:   4    -0.683204440921E+03    0.85200E-02   -0.53462E-02  4000   0.395E-01    0.101E+00
RMM:   5    -0.683195509496E+03    0.89314E-02   -0.13407E-02  4121   0.184E-01    0.683E-01
RMM:   6    -0.683196759634E+03   -0.12501E-02   -0.98299E-03  4038   0.133E-01    0.838E-01
RMM:   7    -0.683191459784E+03    0.52998E-02   -0.93356E-03  4095   0.127E-01    0.608E-01
RMM:   8    -0.683189343015E+03    0.21168E-02   -0.55360E-03  4032   0.968E-02    0.416E-01
RMM:   9    -0.683189030640E+03    0.31238E-03   -0.25509E-03  3972   0.774E-02    0.323E-01
RMM:  10    -0.683188054523E+03    0.97612E-03   -0.71638E-04  4100   0.421E-02    0.110E-01
RMM:  11    -0.683188078723E+03   -0.24200E-04   -0.42391E-04  4581   0.280E-02    0.721E-02
RMM:  12    -0.683188141262E+03   -0.62539E-04   -0.30538E-04  4177   0.240E-02    0.574E-02
RMM:  13    -0.683188156526E+03   -0.15264E-04   -0.13237E-04  4765   0.156E-02    0.391E-02
RMM:  14    -0.683188182543E+03   -0.26017E-04   -0.64871E-05  4372   0.104E-02    0.269E-02
RMM:  15    -0.683188209764E+03   -0.27220E-04   -0.49532E-05  4210   0.816E-03    0.185E-02
RMM:  16    -0.683188241818E+03   -0.32054E-04   -0.38715E-05  4183   0.730E-03    0.176E-02
RMM:  17    -0.683188288175E+03   -0.46357E-04   -0.33089E-05  4022   0.717E-03    0.166E-02
RMM:  18    -0.683188304237E+03   -0.16061E-04   -0.22429E-05  3391   0.537E-03    0.763E-03
RMM:  19    -0.683188331832E+03   -0.27596E-04   -0.18649E-05  3209   0.479E-03    0.999E-03
RMM:  20    -0.683188355566E+03   -0.23733E-04   -0.16870E-05  3234   0.452E-03    0.639E-03
RMM:  21    -0.683188368943E+03   -0.13378E-04   -0.12749E-05  2836   0.374E-03    0.560E-03
RMM:  22    -0.683188385627E+03   -0.16683E-04   -0.13192E-05  3068   0.393E-03    0.371E-03
RMM:  23    -0.683188390502E+03   -0.48747E-05   -0.90435E-06  2486   0.293E-03    0.365E-03
RMM:  24    -0.683188396949E+03   -0.64473E-05   -0.82815E-06  2560   0.287E-03    0.261E-03
RMM:  25    -0.683188400192E+03   -0.32433E-05   -0.67557E-06  2180   0.240E-03    0.167E-03
RMM:  26    -0.683188402762E+03   -0.25695E-05   -0.56957E-06  1947   0.213E-03    0.217E-03
RMM:  27    -0.683188405088E+03   -0.23265E-05   -0.49850E-06  1966   0.199E-03    0.968E-04
RMM:  28    -0.683188407160E+03   -0.20715E-05   -0.43107E-06  1573   0.178E-03    0.132E-03
RMM:  29    -0.683188409170E+03   -0.20107E-05   -0.39664E-06  1763   0.175E-03    0.621E-04
RMM:  30    -0.683188410008E+03   -0.83798E-06   -0.33710E-06  1217   0.154E-03
   8 F= -.68318841E+03 E0= -.68299117E+03  d E =-.290489E+00
 curvature:  -1.46 expect dE=-0.383E+00 dE for cont linesearch -0.646E-05
 trial: gam= 1.06259 g(F)=  0.263E+00 g(S)=  0.000E+00 ort = 0.120E-02 (trialstep = 0.715E+00)
 search vector abs. value=  0.634E+00
 bond charge predicted
       N       E                     dE             d eps       ncg     rms          rms(c)
DAV:   1    -0.683188587340E+03   -0.17817E-03   -0.68142E+01  3564   0.149E+01    0.173E+00
RMM:   2    -0.683403507311E+03   -0.21492E+00   -0.22600E+00  3554   0.244E+00    0.251E+00
RMM:   3    -0.683355659456E+03    0.47848E-01   -0.19797E-01  3738   0.817E-01    0.125E+00
RMM:   4    -0.683346412044E+03    0.92474E-02   -0.34863E-02  4091   0.332E-01    0.885E-01
RMM:   5    -0.683340586843E+03    0.58252E-02   -0.83385E-03  4236   0.149E-01    0.640E-01
RMM:   6    -0.683339604560E+03    0.98228E-03   -0.61579E-03  3994   0.106E-01    0.653E-01
RMM:   7    -0.683336906814E+03    0.26977E-02   -0.85347E-03  4238   0.119E-01    0.522E-01
RMM:   8    -0.683334979528E+03    0.19273E-02   -0.51354E-03  4048   0.924E-02    0.373E-01
RMM:   9    -0.683334609777E+03    0.36975E-03   -0.24870E-03  3969   0.699E-02    0.299E-01
RMM:  10    -0.683333809977E+03    0.79980E-03   -0.72877E-04  3846   0.420E-02    0.115E-01
RMM:  11    -0.683333755574E+03    0.54402E-04   -0.27391E-04  4358   0.238E-02    0.571E-02
RMM:  12    -0.683333827140E+03   -0.71566E-04   -0.19688E-04  4017   0.197E-02    0.508E-02
RMM:  13    -0.683333839046E+03   -0.11906E-04   -0.79938E-05  4371   0.125E-02    0.281E-02
RMM:  14    -0.683333862615E+03   -0.23569E-04   -0.29856E-05  4188   0.788E-03    0.214E-02
RMM:  15    -0.683333893061E+03   -0.30446E-04   -0.20272E-05  3754   0.575E-03    0.168E-02
RMM:  16    -0.683333919402E+03   -0.26342E-04   -0.15738E-05  3693   0.510E-03    0.133E-02
RMM:  17    -0.683333973867E+03   -0.54465E-04   -0.17312E-05  3748   0.576E-03    0.903E-03
RMM:  18    -0.683333985752E+03   -0.11885E-04   -0.76498E-06  2841   0.345E-03    0.656E-03
RMM:  19    -0.683334018266E+03   -0.32514E-04   -0.87780E-06  3097   0.363E-03    0.593E-03
RMM:  20    -0.683334031911E+03   -0.13645E-04   -0.56936E-06  2678   0.284E-03    0.396E-03
RMM:  21    -0.683334045163E+03   -0.13252E-04   -0.54132E-06  2711   0.270E-03    0.606E-03
RMM:  22    -0.683334049742E+03   -0.45792E-05   -0.35026E-06  2385   0.212E-03    0.322E-03
RMM:  23    -0.683334052524E+03   -0.27816E-05   -0.25115E-06  2073   0.175E-03    0.263E-03
RMM:  24    -0.683334057309E+03   -0.47851E-05   -0.26278E-06  2303   0.177E-03    0.243E-03
RMM:  25    -0.683334059760E+03   -0.24509E-05   -0.21718E-06  1949   0.155E-03    0.158E-03
RMM:  26    -0.683334061072E+03   -0.13125E-05   -0.15672E-06  1542   0.128E-03    0.164E-03
RMM:  27    -0.683334063034E+03   -0.19612E-05   -0.14541E-06  1772   0.129E-03    0.629E-04
RMM:  28    -0.683334064452E+03   -0.14184E-05   -0.11754E-06  1373   0.112E-03    0.127E-03
RMM:  29    -0.683334065724E+03   -0.12723E-05   -0.11498E-06  1493   0.110E-03    0.356E-04
RMM:  30    -0.683334066197E+03   -0.47300E-06   -0.89665E-07  1065   0.950E-04
   9 F= -.68333407E+03 E0= -.68313735E+03  d E =-.145656E+00
 trial-energy change:   -0.145656  1 .order   -0.146560   -0.188912   -0.104208
 step:   1.7602(harm=  1.5956)  dis= 0.18650  next Energy=  -683.407334 (dE=-0.219E+00)
 bond charge predicted
       N       E                     dE             d eps       ncg     rms          rms(c)
DAV:   1    -0.683010211642E+03    0.32385E+00   -0.14367E+02  3580   0.219E+01    0.247E+00
RMM:   2    -0.683465898024E+03   -0.45569E+00   -0.54110E+00  3543   0.368E+00    0.228E+00
RMM:   3    -0.683479086133E+03   -0.13188E-01   -0.49134E-01  3810   0.126E+00    0.254E+00
RMM:   4    -0.683427096661E+03    0.51989E-01   -0.73709E-02  4058   0.505E-01    0.130E+00
RMM:   5    -0.683421083484E+03    0.60132E-02   -0.20764E-02  4121   0.236E-01    0.107E+00
RMM:   6    -0.683414212128E+03    0.68714E-02   -0.19118E-02  3914   0.203E-01    0.851E-01
RMM:   7    -0.683409252245E+03    0.49599E-02   -0.17781E-02  4027   0.172E-01    0.585E-01
RMM:   8    -0.683410359062E+03   -0.11068E-02   -0.11352E-02  4004   0.140E-01    0.710E-01
RMM:   9    -0.683404631469E+03    0.57276E-02   -0.44073E-03  3871   0.894E-02    0.133E-01
RMM:  10    -0.683405081232E+03   -0.44976E-03   -0.11456E-03  4174   0.544E-02    0.177E-01
RMM:  11    -0.683404853558E+03    0.22767E-03   -0.41767E-04  4556   0.301E-02    0.693E-02
RMM:  12    -0.683405014650E+03   -0.16109E-03   -0.23881E-04  4246   0.223E-02    0.843E-02
RMM:  13    -0.683405033851E+03   -0.19201E-04   -0.17227E-04  4259   0.177E-02    0.379E-02
RMM:  14    -0.683405082954E+03   -0.49103E-04   -0.78185E-05  4725   0.119E-02    0.322E-02
RMM:  15    -0.683405135250E+03   -0.52296E-04   -0.45389E-05  4341   0.845E-03    0.270E-02
RMM:  16    -0.683405182508E+03   -0.47258E-04   -0.32224E-05  4181   0.716E-03    0.158E-02
RMM:  17    -0.683405238597E+03   -0.56089E-04   -0.26339E-05  4134   0.643E-03    0.232E-02
RMM:  18    -0.683405300689E+03   -0.62092E-04   -0.22928E-05  3928   0.629E-03    0.149E-02
RMM:  19    -0.683405319863E+03   -0.19174E-04   -0.12752E-05  3339   0.458E-03    0.830E-03
RMM:  20    -0.683405338124E+03   -0.18261E-04   -0.91686E-06  2828   0.361E-03    0.809E-03
RMM:  21    -0.683405369222E+03   -0.31099E-04   -0.12831E-05  3448   0.449E-03    0.597E-03
RMM:  22    -0.683405384003E+03   -0.14781E-04   -0.76858E-06  2854   0.334E-03    0.785E-03
RMM:  23    -0.683405391964E+03   -0.79613E-05   -0.61546E-06  2719   0.285E-03    0.281E-03
RMM:  24    -0.683405395990E+03   -0.40255E-05   -0.39799E-06  2438   0.218E-03    0.255E-03
RMM:  25    -0.683405403182E+03   -0.71924E-05   -0.41498E-06  2541   0.219E-03    0.371E-03
RMM:  26    -0.683405405505E+03   -0.23234E-05   -0.31488E-06  2257   0.182E-03    0.130E-03
RMM:  27    -0.683405409020E+03   -0.35144E-05   -0.22587E-06  1888   0.153E-03    0.180E-03
RMM:  28    -0.683405411087E+03   -0.20673E-05   -0.18106E-06  1730   0.135E-03    0.107E-03
RMM:  29    -0.683405414099E+03   -0.30114E-05   -0.16515E-06  1773   0.132E-03    0.114E-03
RMM:  30    -0.683405415759E+03   -0.16607E-05   -0.14001E-06  1421   0.118E-03    0.441E-04
RMM:  31    -0.683405416338E+03   -0.57836E-06   -0.11344E-06  1181   0.105E-03
  10 F= -.68340542E+03 E0= -.68320886E+03  d E =-.217006E+00
 curvature:  -1.85 expect dE=-0.402E+00 dE for cont linesearch -0.461E-04
 trial: gam= 0.70967 g(F)=  0.217E+00 g(S)=  0.000E+00 ort =-0.398E-02 (trialstep = 0.924E+00)
 search vector abs. value=  0.531E+00
 bond charge predicted
       N       E                     dE             d eps       ncg     rms          rms(c)
DAV:   1    -0.683063907725E+03    0.34151E+00   -0.13768E+02  3608   0.211E+01    0.257E+00
RMM:   2    -0.683648951470E+03   -0.58504E+00   -0.65757E+00  3525   0.370E+00    0.219E+00
RMM:   3    -0.683693160714E+03   -0.44209E-01   -0.55037E-01  3757   0.129E+00    0.289E+00
RMM:   4    -0.683627121741E+03    0.66039E-01   -0.75384E-02  3784   0.531E-01    0.149E+00
RMM:   5    -0.683621955399E+03    0.51663E-02   -0.20893E-02  4081   0.244E-01    0.122E+00
RMM:   6    -0.683613303572E+03    0.86518E-02   -0.22180E-02  3824   0.239E-01    0.868E-01
RMM:   7    -0.683611912964E+03    0.13906E-02   -0.14626E-02  4006   0.172E-01    0.789E-01
RMM:   8    -0.683608676999E+03    0.32360E-02   -0.92046E-03  3923   0.147E-01    0.555E-01
RMM:   9    -0.683605659344E+03    0.30177E-02   -0.27529E-03  3877   0.779E-02    0.251E-01
RMM:  10    -0.683605307063E+03    0.35228E-03   -0.12331E-03  4193   0.497E-02    0.130E-01
RMM:  11    -0.683605278289E+03    0.28774E-04   -0.47614E-04  4186   0.348E-02    0.120E-01
RMM:  12    -0.683605164034E+03    0.11425E-03   -0.18930E-04  4733   0.194E-02    0.611E-02
RMM:  13    -0.683605218486E+03   -0.54452E-04   -0.20921E-04  4155   0.208E-02    0.718E-02
RMM:  14    -0.683605220922E+03   -0.24354E-05   -0.13216E-04  4148   0.164E-02    0.401E-02
RMM:  15    -0.683605258773E+03   -0.37852E-04   -0.42103E-05  4199   0.986E-03    0.359E-02
RMM:  16    -0.683605301173E+03   -0.42400E-04   -0.57477E-05  4095   0.112E-02    0.205E-02
RMM:  17    -0.683605327566E+03   -0.26392E-04   -0.19303E-05  4155   0.633E-03    0.153E-02
RMM:  18    -0.683605387871E+03   -0.60306E-04   -0.21322E-05  4177   0.557E-03    0.193E-02
RMM:  19    -0.683605411877E+03   -0.24006E-04   -0.11659E-05  3880   0.422E-03    0.113E-02
RMM:  20    -0.683605446499E+03   -0.34621E-04   -0.11011E-05  3713   0.413E-03    0.133E-02
RMM:  21    -0.683605471436E+03   -0.24937E-04   -0.12385E-05  3627   0.410E-03    0.952E-03
RMM:  22    -0.683605480833E+03   -0.93969E-05   -0.52631E-06  2848   0.283E-03    0.497E-03
RMM:  23    -0.683605497514E+03   -0.16682E-04   -0.60122E-06  2933   0.288E-03    0.382E-03
RMM:  24    -0.683605502164E+03   -0.46497E-05   -0.20296E-06  2300   0.161E-03    0.359E-03
RMM:  25    -0.683605511408E+03   -0.92440E-05   -0.25680E-06  2409   0.181E-03    0.290E-03
RMM:  26    -0.683605515737E+03   -0.43291E-05   -0.13557E-06  2059   0.130E-03    0.181E-03
RMM:  27    -0.683605520907E+03   -0.51702E-05   -0.95921E-07  1829   0.107E-03    0.204E-03
RMM:  28    -0.683605525363E+03   -0.44562E-05   -0.97998E-07  1950   0.105E-03    0.868E-04
RMM:  29    -0.683605527002E+03   -0.16382E-05   -0.54277E-07  1315   0.788E-04    0.846E-04
RMM:  30    -0.683605528970E+03   -0.19683E-05   -0.61246E-07  1589   0.841E-04    0.799E-04
RMM:  31    -0.683605529344E+03   -0.37422E-06   -0.34973E-07   969   0.650E-04
  11 F= -.68360553E+03 E0= -.68340942E+03  d E =-.200113E+00
 ZBRENT: can't locate minimum, use default step
 trial-energy change:   -0.200113  1 .order   -0.197714   -0.198066   -0.197363
 step:   3.6976(harm=260.4689)  dis= 0.28715  next Energy=  -711.310079 (dE=-0.279E+02)
 bond charge predicted
       N       E                     dE             d eps       ncg     rms          rms(c)
DAV:   1    -0.675418584019E+03    0.81869E+01   -0.11394E+03  3572   0.599E+01    0.915E+00
RMM:   2    -0.683255152481E+03   -0.78366E+01   -0.94318E+01  3540   0.130E+01    0.606E+00
RMM:   3    -0.684975050833E+03   -0.17199E+01   -0.13980E+01  3817   0.495E+00    0.922E+00
RMM:   4    -0.684374738373E+03    0.60031E+00   -0.10858E+00  3918   0.188E+00    0.677E+00
RMM:   5    -0.684239592427E+03    0.13515E+00   -0.25848E-01  4738   0.854E-01    0.591E+00
RMM:   6    -0.683965080649E+03    0.27451E+00   -0.39975E-01  3929   0.984E-01    0.415E+00
RMM:   7    -0.683811506304E+03    0.15357E+00   -0.46878E-01  4255   0.108E+00    0.223E+00
RMM:   8    -0.683831741571E+03   -0.20235E-01   -0.55659E-01  4713   0.116E+00    0.211E+00
RMM:   9    -0.683810674415E+03    0.21067E-01   -0.73086E-02  4123   0.407E-01    0.168E+00
RMM:  10    -0.683785074937E+03    0.25599E-01   -0.32339E-02  3782   0.257E-01    0.116E+00
RMM:  11    -0.683768896376E+03    0.16179E-01   -0.69191E-02  4066   0.384E-01    0.735E-01
RMM:  12    -0.683762883637E+03    0.60127E-02   -0.15044E-02  3900   0.188E-01    0.196E-01
RMM:  13    -0.683763907519E+03   -0.10239E-02   -0.40766E-03  4658   0.883E-02    0.300E-01
RMM:  14    -0.683762884927E+03    0.10226E-02   -0.10100E-03  4355   0.490E-02    0.915E-02
RMM:  15    -0.683763029964E+03   -0.14504E-03   -0.46161E-04  4835   0.316E-02    0.107E-01
RMM:  16    -0.683763095275E+03   -0.65311E-04   -0.42702E-04  4423   0.270E-02    0.106E-01
RMM:  17    -0.683763032673E+03    0.62602E-04   -0.23842E-04  4495   0.216E-02    0.497E-02
RMM:  18    -0.683763143866E+03   -0.11119E-03   -0.17745E-04  4629   0.176E-02    0.548E-02
RMM:  19    -0.683763196061E+03   -0.52194E-04   -0.11718E-04  4628   0.142E-02    0.264E-02
RMM:  20    -0.683763354193E+03   -0.15813E-03   -0.97442E-05  4781   0.128E-02    0.350E-02
RMM:  21    -0.683763515689E+03   -0.16150E-03   -0.10317E-04  4764   0.129E-02    0.281E-02
RMM:  22    -0.683763544901E+03   -0.29212E-04   -0.33983E-05  4778   0.806E-03    0.184E-02
RMM:  23    -0.683763608971E+03   -0.64070E-04   -0.52908E-05  4696   0.974E-03    0.152E-02
RMM:  24    -0.683763621564E+03   -0.12593E-04   -0.24558E-05  4547   0.667E-03    0.102E-02
RMM:  25    -0.683763639578E+03   -0.18014E-04   -0.15296E-05  4042   0.534E-03    0.112E-02
RMM:  26    -0.683763655326E+03   -0.15748E-04   -0.95828E-06  3441   0.390E-03    0.960E-03
RMM:  27    -0.683763679414E+03   -0.24089E-04   -0.10277E-05  3605   0.447E-03    0.729E-03
RMM:  28    -0.683763701237E+03   -0.21823E-04   -0.95875E-06  3491   0.441E-03    0.457E-03
RMM:  29    -0.683763715996E+03   -0.14758E-04   -0.37775E-06  2631   0.238E-03    0.441E-03
RMM:  30    -0.683763740865E+03   -0.24869E-04   -0.58834E-06  2831   0.287E-03    0.217E-03
RMM:  31    -0.683763748565E+03   -0.77003E-05   -0.27764E-06  2301   0.182E-03    0.175E-03
RMM:  32    -0.683763757900E+03   -0.93350E-05   -0.28393E-06  2219   0.163E-03    0.682E-04
RMM:  33    -0.683763760474E+03   -0.25733E-05   -0.17332E-06  1947   0.130E-03    0.778E-04
RMM:  34    -0.683763761171E+03   -0.69698E-06   -0.11977E-06  1468   0.102E-03
  12 F= -.68376376E+03 E0= -.68356868E+03  d E =-.358345E+00
 curvature:  -6.86 expect dE=-0.530E+01 dE for cont linesearch -0.108E+01
 ZBRENT: interpolating
 opt :   2.1027  next Energy=  -683.731313 (dE=-0.326E+00)
 bond charge predicted
       N       E                     dE             d eps       ncg     rms          rms(c)
DAV:   1    -0.681184788800E+03    0.25790E+01   -0.40157E+02  3500   0.383E+01    0.552E+00
RMM:   2    -0.683739037019E+03   -0.25542E+01   -0.27719E+01  3547   0.675E+00    0.326E+00
RMM:   3    -0.684243916959E+03   -0.50488E+00   -0.33637E+00  3872   0.265E+00    0.556E+00
RMM:   4    -0.683928198836E+03    0.31572E+00   -0.44522E-01  3982   0.113E+00    0.307E+00
RMM:   5    -0.683879527296E+03    0.48672E-01   -0.12385E-01  4549   0.542E-01    0.219E+00
RMM:   6    -0.683867932643E+03    0.11595E-01   -0.17466E-01  3927   0.596E-01    0.217E+00
RMM:   7    -0.683840507195E+03    0.27425E-01   -0.20832E-01  4077   0.639E-01    0.126E+00
RMM:   8    -0.683830478105E+03    0.10029E-01   -0.38962E-02  3739   0.307E-01    0.109E+00
RMM:   9    -0.683820311108E+03    0.10167E-01   -0.26333E-02  3723   0.248E-01    0.502E-01
RMM:  10    -0.683822721004E+03   -0.24099E-02   -0.79206E-03  3780   0.138E-01    0.554E-01
RMM:  11    -0.683819453435E+03    0.32676E-02   -0.20583E-03  3881   0.702E-02    0.142E-01
RMM:  12    -0.683819578666E+03   -0.12523E-03   -0.73085E-04  4652   0.406E-02    0.127E-01
RMM:  13    -0.683819618797E+03   -0.40132E-04   -0.36503E-04  4311   0.268E-02    0.918E-02
RMM:  14    -0.683819692919E+03   -0.74121E-04   -0.19310E-04  4438   0.199E-02    0.496E-02
RMM:  15    -0.683819973891E+03   -0.28097E-03   -0.17260E-04  4473   0.197E-02    0.624E-02
RMM:  16    -0.683820072098E+03   -0.98208E-04   -0.81542E-05  4635   0.137E-02    0.292E-02
RMM:  17    -0.683820166167E+03   -0.94069E-04   -0.40309E-05  5031   0.893E-03    0.277E-02
RMM:  18    -0.683820371991E+03   -0.20582E-03   -0.54195E-05  4887   0.929E-03    0.305E-02
RMM:  19    -0.683820589604E+03   -0.21761E-03   -0.61705E-05  4906   0.965E-03    0.177E-02
RMM:  20    -0.683820857901E+03   -0.26830E-03   -0.69672E-05  4620   0.921E-03    0.163E-02
RMM:  21    -0.683820952443E+03   -0.94541E-04   -0.27323E-05  4347   0.595E-03    0.113E-02
RMM:  22    -0.683821097648E+03   -0.14521E-03   -0.38695E-05  4669   0.696E-03    0.129E-02
RMM:  23    -0.683821158996E+03   -0.61348E-04   -0.16137E-05  3820   0.447E-03    0.102E-02
RMM:  24    -0.683821193839E+03   -0.34843E-04   -0.73943E-06  2981   0.320E-03    0.813E-03
RMM:  25    -0.683821258598E+03   -0.64758E-04   -0.20353E-05  4071   0.532E-03    0.457E-03
RMM:  26    -0.683821283340E+03   -0.24742E-04   -0.61258E-06  2809   0.297E-03    0.549E-03
RMM:  27    -0.683821309598E+03   -0.26258E-04   -0.47433E-06  2641   0.235E-03    0.505E-03
RMM:  28    -0.683821323627E+03   -0.14029E-04   -0.36812E-06  2568   0.219E-03    0.297E-03
RMM:  29    -0.683821337883E+03   -0.14257E-04   -0.44829E-06  2698   0.265E-03    0.192E-03
RMM:  30    -0.683821341601E+03   -0.37182E-05   -0.19555E-06  2124   0.168E-03    0.203E-03
RMM:  31    -0.683821344646E+03   -0.30443E-05   -0.15417E-06  1752   0.133E-03    0.153E-03
RMM:  32    -0.683821346698E+03   -0.20525E-05   -0.15335E-06  1981   0.143E-03    0.359E-04
RMM:  33    -0.683821347643E+03   -0.94427E-06   -0.11810E-06  1332   0.112E-03
  13 F= -.68382135E+03 E0= -.68362564E+03  d E =-.415931E+00
 curvature:  -0.80 expect dE=-0.273E+00 dE for cont linesearch -0.265E-01
 ZBRENT: bisectioning
 opt :   2.9001  next Energy=  -683.905204 (dE=-0.500E+00)
 bond charge predicted
       N       E                     dE             d eps       ncg     rms          rms(c)
DAV:   1    -0.683398929530E+03    0.42242E+00   -0.10260E+02  3552   0.194E+01    0.187E+00
RMM:   2    -0.683873289448E+03   -0.47436E+00   -0.48857E+00  3530   0.345E+00    0.161E+00
RMM:   3    -0.683921862523E+03   -0.48573E-01   -0.51966E-01  3853   0.133E+00    0.221E+00
RMM:   4    -0.683887492011E+03    0.34371E-01   -0.77000E-02  3770   0.541E-01    0.124E+00
RMM:   5    -0.683884056499E+03    0.34355E-02   -0.17649E-02  4141   0.239E-01    0.101E+00
RMM:   6    -0.683882690910E+03    0.13656E-02   -0.19573E-02  3766   0.228E-01    0.955E-01
RMM:   7    -0.683876741708E+03    0.59492E-02   -0.12752E-02  3842   0.167E-01    0.535E-01
RMM:   8    -0.683878211337E+03   -0.14696E-02   -0.59298E-03  3771   0.124E-01    0.583E-01
RMM:   9    -0.683874685244E+03    0.35261E-02   -0.18175E-03  3937   0.660E-02    0.165E-01
RMM:  10    -0.683874633902E+03    0.51342E-04   -0.80803E-04  4552   0.390E-02    0.113E-01
RMM:  11    -0.683874613886E+03    0.20017E-04   -0.49547E-04  4304   0.285E-02    0.114E-01
RMM:  12    -0.683874477814E+03    0.13607E-03   -0.22902E-04  4583   0.210E-02    0.406E-02
RMM:  13    -0.683874500240E+03   -0.22426E-04   -0.86476E-05  5053   0.129E-02    0.451E-02
RMM:  14    -0.683874497798E+03    0.24415E-05   -0.38486E-05  4553   0.853E-03    0.224E-02
RMM:  15    -0.683874520888E+03   -0.23090E-04   -0.26077E-05  4596   0.694E-03    0.243E-02
RMM:  16    -0.683874564136E+03   -0.43248E-04   -0.28954E-05  4485   0.693E-03    0.225E-02
RMM:  17    -0.683874574986E+03   -0.10851E-04   -0.10995E-05  4067   0.441E-03    0.118E-02
RMM:  18    -0.683874589138E+03   -0.14152E-04   -0.77889E-06  3561   0.346E-03    0.129E-02
RMM:  19    -0.683874613760E+03   -0.24622E-04   -0.12339E-05  4000   0.423E-03    0.812E-03
RMM:  20    -0.683874636039E+03   -0.22279E-04   -0.75514E-06  3406   0.342E-03    0.800E-03
RMM:  21    -0.683874651629E+03   -0.15590E-04   -0.69030E-06  3245   0.308E-03    0.696E-03
RMM:  22    -0.683874658353E+03   -0.67238E-05   -0.35991E-06  2649   0.232E-03    0.368E-03
RMM:  23    -0.683874670320E+03   -0.11967E-04   -0.34046E-06  2568   0.211E-03    0.412E-03
RMM:  24    -0.683874673228E+03   -0.29087E-05   -0.12859E-06  2128   0.130E-03    0.282E-03
RMM:  25    -0.683874677699E+03   -0.44703E-05   -0.14907E-06  2278   0.142E-03    0.220E-03
RMM:  26    -0.683874680933E+03   -0.32341E-05   -0.13903E-06  2172   0.142E-03    0.166E-03
RMM:  27    -0.683874682769E+03   -0.18364E-05   -0.58659E-07  1711   0.905E-04    0.174E-03
RMM:  28    -0.683874685846E+03   -0.30773E-05   -0.85241E-07  1888   0.954E-04    0.518E-04
RMM:  29    -0.683874687106E+03   -0.12594E-05   -0.45662E-07  1559   0.773E-04    0.665E-04
RMM:  30    -0.683874687570E+03   -0.46397E-06   -0.28630E-07  1082   0.607E-04
  14 F= -.68387469E+03 E0= -.68367928E+03  d E =-.469271E+00
 curvature:  -2.53 expect dE=-0.102E+01 dE for cont linesearch -0.114E-02
 trial: gam= 1.33821 g(F)=  0.403E+00 g(S)=  0.000E+00 ort =-0.154E-01 (trialstep = 0.534E+00)
 search vector abs. value=  0.131E+01
 bond charge predicted
       N       E                     dE             d eps       ncg     rms          rms(c)
DAV:   1    -0.683423535833E+03    0.45115E+00   -0.11491E+02  3520   0.210E+01    0.196E+00
RMM:   2    -0.683979736433E+03   -0.55620E+00   -0.56302E+00  3537   0.379E+00    0.180E+00
RMM:   3    -0.684034693265E+03   -0.54957E-01   -0.65810E-01  3849   0.150E+00    0.224E+00
RMM:   4    -0.683994550035E+03    0.40143E-01   -0.96918E-02  3790   0.606E-01    0.115E+00
RMM:   5    -0.683995339556E+03   -0.78952E-03   -0.21743E-02  4526   0.268E-01    0.111E+00
RMM:   6    -0.683998097184E+03   -0.27576E-02   -0.17626E-02  3729   0.216E-01    0.121E+00
RMM:   7    -0.683984742870E+03    0.13354E-01   -0.14087E-02  3867   0.184E-01    0.483E-01
RMM:   8    -0.683989004905E+03   -0.42620E-02   -0.10918E-02  4008   0.141E-01    0.709E-01
RMM:   9    -0.683984327524E+03    0.46774E-02   -0.39342E-03  3943   0.871E-02    0.304E-01
RMM:  10    -0.683983501782E+03    0.82574E-03   -0.13203E-03  4494   0.515E-02    0.113E-01
RMM:  11    -0.683983560372E+03   -0.58590E-04   -0.55595E-04  4849   0.311E-02    0.133E-01
RMM:  12    -0.683983372705E+03    0.18767E-03   -0.28449E-04  4478   0.236E-02    0.558E-02
RMM:  13    -0.683983384169E+03   -0.11464E-04   -0.12309E-04  5173   0.160E-02    0.586E-02
RMM:  14    -0.683983362796E+03    0.21372E-04   -0.53585E-05  4739   0.109E-02    0.218E-02
RMM:  15    -0.683983372468E+03   -0.96720E-05   -0.28750E-05  4963   0.779E-03    0.200E-02
RMM:  16    -0.683983394626E+03   -0.22158E-04   -0.25915E-05  4745   0.671E-03    0.217E-02
RMM:  17    -0.683983412492E+03   -0.17866E-04   -0.17933E-05  4601   0.578E-03    0.142E-02
RMM:  18    -0.683983421949E+03   -0.94570E-05   -0.89961E-06  3819   0.402E-03    0.125E-02
RMM:  19    -0.683983439825E+03   -0.17876E-04   -0.88646E-06  3855   0.398E-03    0.774E-03
RMM:  20    -0.683983458472E+03   -0.18647E-04   -0.83192E-06  3722   0.367E-03    0.897E-03
RMM:  21    -0.683983479427E+03   -0.20955E-04   -0.85994E-06  3546   0.349E-03    0.807E-03
RMM:  22    -0.683983486355E+03   -0.69277E-05   -0.36036E-06  2716   0.235E-03    0.364E-03
RMM:  23    -0.683983497623E+03   -0.11268E-04   -0.35763E-06  2751   0.234E-03    0.492E-03
RMM:  24    -0.683983503606E+03   -0.59828E-05   -0.22828E-06  2440   0.189E-03    0.265E-03
RMM:  25    -0.683983506327E+03   -0.27211E-05   -0.11169E-06  2125   0.131E-03    0.221E-03
RMM:  26    -0.683983509864E+03   -0.35371E-05   -0.13865E-06  2268   0.147E-03    0.180E-03
RMM:  27    -0.683983511560E+03   -0.16960E-05   -0.81214E-07  1934   0.116E-03    0.139E-03
RMM:  28    -0.683983514406E+03   -0.28455E-05   -0.79863E-07  1712   0.970E-04    0.984E-04
RMM:  29    -0.683983515147E+03   -0.74128E-06   -0.44699E-07  1368   0.792E-04
  15 F= -.68398352E+03 E0= -.68378874E+03  d E =-.108828E+00
 trial-energy change:   -0.108828  1 .order   -0.098580   -0.204270    0.007109
 step:   0.5196(harm=  0.5157)  dis= 0.07172  next Energy=  -683.983608 (dE=-0.109E+00)
 bond charge predicted
       N       E                     dE             d eps       ncg     rms          rms(c)
DAV:   1    -0.683983282316E+03    0.23209E-03   -0.79328E-02  3752   0.555E-01    0.529E-02
RMM:   2    -0.683983606235E+03   -0.32392E-03   -0.32499E-03  3607   0.970E-02    0.439E-02
RMM:   3    -0.683983648951E+03   -0.42717E-04   -0.41446E-04  3816   0.389E-02    0.634E-02
RMM:   4    -0.683983619975E+03    0.28976E-04   -0.78072E-05  3809   0.172E-02    0.292E-02
RMM:   5    -0.683983616625E+03    0.33499E-05   -0.20230E-05  3822   0.793E-03    0.229E-02
RMM:   6    -0.683983620311E+03   -0.36860E-05   -0.96550E-06  3231   0.461E-03    0.301E-02
RMM:   7    -0.683983612987E+03    0.73238E-05   -0.10738E-05  3319   0.491E-03    0.146E-02
RMM:   8    -0.683983612609E+03    0.37800E-06   -0.59366E-06  2996   0.364E-03
  16 F= -.68398361E+03 E0= -.68378883E+03  d E =-.108925E+00
 curvature:  -0.84 expect dE=-0.352E+00 dE for cont linesearch -0.528E-06
 trial: gam= 0.31192 g(F)=  0.418E+00 g(S)=  0.000E+00 ort =-0.908E-03 (trialstep = 0.531E+00)
 search vector abs. value=  0.545E+00
 bond charge predicted
       N       E                     dE             d eps       ncg     rms          rms(c)
DAV:   1    -0.684067779388E+03   -0.84166E-01   -0.30281E+01  3508   0.112E+01    0.100E+00
RMM:   2    -0.684167281269E+03   -0.99502E-01   -0.10297E+00  3563   0.178E+00    0.106E+00
RMM:   3    -0.684175707329E+03   -0.84261E-02   -0.12712E-01  3971   0.683E-01    0.124E+00
RMM:   4    -0.684167173735E+03    0.85336E-02   -0.23937E-02  4387   0.286E-01    0.866E-01
RMM:   5    -0.684160088287E+03    0.70854E-02   -0.67916E-03  4357   0.137E-01    0.418E-01
RMM:   6    -0.684160037281E+03    0.51006E-04   -0.34158E-03  4549   0.827E-02    0.400E-01
RMM:   7    -0.684160437739E+03   -0.40046E-03   -0.54882E-03  4387   0.982E-02    0.467E-01
RMM:   8    -0.684158235947E+03    0.22018E-02   -0.28338E-03  4099   0.727E-02    0.117E-01
RMM:   9    -0.684158391482E+03   -0.15554E-03   -0.65501E-04  4885   0.398E-02    0.128E-01
RMM:  10    -0.684158246800E+03    0.14468E-03   -0.19618E-04  4543   0.227E-02    0.439E-02
RMM:  11    -0.684158265169E+03   -0.18369E-04   -0.10041E-04  4996   0.146E-02    0.445E-02
RMM:  12    -0.684158276255E+03   -0.11086E-04   -0.55212E-05  4902   0.103E-02    0.288E-02
RMM:  13    -0.684158284794E+03   -0.85386E-05   -0.27732E-05  5003   0.715E-03    0.209E-02
RMM:  14    -0.684158295603E+03   -0.10809E-04   -0.14748E-05  4486   0.504E-03    0.150E-02
RMM:  15    -0.684158309926E+03   -0.14323E-04   -0.87722E-06  3963   0.406E-03    0.772E-03
RMM:  16    -0.684158317482E+03   -0.75559E-05   -0.53228E-06  2679   0.287E-03    0.487E-03
RMM:  17    -0.684158336588E+03   -0.19106E-04   -0.40481E-06  2700   0.254E-03    0.402E-03
RMM:  18    -0.684158346269E+03   -0.96810E-05   -0.24736E-06  2351   0.189E-03    0.235E-03
RMM:  19    -0.684158356945E+03   -0.10676E-04   -0.20398E-06  2255   0.167E-03    0.297E-03
RMM:  20    -0.684158364549E+03   -0.76045E-05   -0.14967E-06  2121   0.140E-03    0.135E-03
RMM:  21    -0.684158368423E+03   -0.38743E-05   -0.94362E-07  1902   0.115E-03    0.140E-03
RMM:  22    -0.684158372560E+03   -0.41367E-05   -0.91595E-07  1964   0.107E-03    0.122E-03
RMM:  23    -0.684158374344E+03   -0.17842E-05   -0.58491E-07  1547   0.893E-04    0.435E-04
RMM:  24    -0.684158375286E+03   -0.94141E-06   -0.44829E-07  1322   0.789E-04
  17 F= -.68415838E+03 E0= -.68396409E+03  d E =-.174763E+00
 trial-energy change:   -0.174763  1 .order   -0.174572   -0.221793   -0.127351
 step:   1.2466(harm=  1.2466)  dis= 0.07593  next Energy=  -684.244047 (dE=-0.260E+00)
 bond charge predicted
       N       E                     dE             d eps       ncg     rms          rms(c)
DAV:   1    -0.684075648488E+03    0.82726E-01   -0.55038E+01  3500   0.151E+01    0.139E+00
RMM:   2    -0.684264111043E+03   -0.18846E+00   -0.19348E+00  3561   0.241E+00    0.148E+00
RMM:   3    -0.684278469310E+03   -0.14358E-01   -0.23194E-01  3934   0.917E-01    0.174E+00
RMM:   4    -0.684260569308E+03    0.17900E-01   -0.41512E-02  4278   0.380E-01    0.119E+00
RMM:   5    -0.684247413903E+03    0.13155E-01   -0.12565E-02  4166   0.188E-01    0.584E-01
RMM:   6    -0.684247269862E+03    0.14404E-03   -0.63798E-03  4419   0.116E-01    0.559E-01
RMM:   7    -0.684247778166E+03   -0.50830E-03   -0.10263E-02  4350   0.134E-01    0.644E-01
RMM:   8    -0.684243811508E+03    0.39667E-02   -0.54107E-03  4044   0.983E-02    0.181E-01
RMM:   9    -0.684244167990E+03   -0.35648E-03   -0.12916E-03  4655   0.551E-02    0.214E-01
RMM:  10    -0.684243734404E+03    0.43359E-03   -0.42189E-04  4314   0.329E-02    0.648E-02
RMM:  11    -0.684243772772E+03   -0.38368E-04   -0.19801E-04  5020   0.205E-02    0.646E-02
RMM:  12    -0.684243777906E+03   -0.51344E-05   -0.88906E-05  4909   0.130E-02    0.406E-02
RMM:  13    -0.684243793899E+03   -0.15992E-04   -0.49622E-05  5011   0.963E-03    0.312E-02
RMM:  14    -0.684243813576E+03   -0.19678E-04   -0.27038E-05  4834   0.695E-03    0.226E-02
RMM:  15    -0.684243836535E+03   -0.22959E-04   -0.15231E-05  4562   0.549E-03    0.114E-02
RMM:  16    -0.684243847337E+03   -0.10802E-04   -0.93344E-06  3229   0.374E-03    0.678E-03
RMM:  17    -0.684243877049E+03   -0.29712E-04   -0.67376E-06  3126   0.330E-03    0.574E-03
RMM:  18    -0.684243892752E+03   -0.15703E-04   -0.43518E-06  2612   0.245E-03    0.322E-03
RMM:  19    -0.684243910222E+03   -0.17469E-04   -0.34518E-06  2499   0.215E-03    0.432E-03
RMM:  20    -0.684243925638E+03   -0.15416E-04   -0.29227E-06  2388   0.188E-03    0.193E-03
RMM:  21    -0.684243933345E+03   -0.77071E-05   -0.18018E-06  2171   0.150E-03    0.199E-03
RMM:  22    -0.684243941276E+03   -0.79315E-05   -0.17096E-06  2195   0.141E-03    0.176E-03
RMM:  23    -0.684243945817E+03   -0.45409E-05   -0.12326E-06  1911   0.118E-03    0.552E-04
RMM:  24    -0.684243948669E+03   -0.28522E-05   -0.98851E-07  1693   0.104E-03    0.888E-04
RMM:  25    -0.684243949694E+03   -0.10243E-05   -0.71716E-07  1556   0.921E-04    0.383E-04
RMM:  26    -0.684243950175E+03   -0.48132E-06   -0.55362E-07  1196   0.805E-04
  18 F= -.68424395E+03 E0= -.68405033E+03  d E =-.260338E+00
 curvature:  -0.81 expect dE=-0.143E+00 dE for cont linesearch -0.369E-06
 trial: gam= 0.44023 g(F)=  0.175E+00 g(S)=  0.000E+00 ort =-0.497E-03 (trialstep = 0.674E+00)
 search vector abs. value=  0.280E+00
 bond charge predicted
       N       E                     dE             d eps       ncg     rms          rms(c)
DAV:   1    -0.684283829384E+03   -0.39880E-01   -0.22341E+01  3532   0.895E+00    0.870E-01
RMM:   2    -0.684355088759E+03   -0.71259E-01   -0.69764E-01  3590   0.144E+00    0.107E+00
RMM:   3    -0.684354837427E+03    0.25133E-03   -0.80879E-02  3955   0.541E-01    0.104E+00
RMM:   4    -0.684349579244E+03    0.52582E-02   -0.17595E-02  4177   0.236E-01    0.720E-01
RMM:   5    -0.684345180633E+03    0.43986E-02   -0.53390E-03  4081   0.119E-01    0.385E-01
RMM:   6    -0.684344651658E+03    0.52897E-03   -0.22942E-03  4585   0.691E-02    0.285E-01
RMM:   7    -0.684345808972E+03   -0.11573E-02   -0.33199E-03  4349   0.740E-02    0.428E-01
RMM:   8    -0.684344071269E+03    0.17377E-02   -0.18673E-03  4169   0.586E-02    0.734E-02
RMM:   9    -0.684344306321E+03   -0.23505E-03   -0.51854E-04  4705   0.344E-02    0.116E-01
RMM:  10    -0.684344217449E+03    0.88872E-04   -0.20119E-04  4739   0.195E-02    0.385E-02
RMM:  11    -0.684344242159E+03   -0.24710E-04   -0.10768E-04  5082   0.132E-02    0.361E-02
RMM:  12    -0.684344265583E+03   -0.23424E-04   -0.65177E-05  4762   0.942E-03    0.261E-02
RMM:  13    -0.684344283113E+03   -0.17530E-04   -0.39864E-05  4600   0.733E-03    0.168E-02
RMM:  14    -0.684344301172E+03   -0.18060E-04   -0.26504E-05  4160   0.561E-03    0.171E-02
RMM:  15    -0.684344324468E+03   -0.23296E-04   -0.18028E-05  3653   0.488E-03    0.853E-03
RMM:  16    -0.684344333908E+03   -0.94392E-05   -0.11973E-05  2719   0.375E-03    0.604E-03
RMM:  17    -0.684344352674E+03   -0.18766E-04   -0.94713E-06  2808   0.340E-03    0.532E-03
RMM:  18    -0.684344361079E+03   -0.84054E-05   -0.65401E-06  2504   0.272E-03    0.234E-03
RMM:  19    -0.684344367152E+03   -0.60726E-05   -0.49487E-06  2326   0.234E-03    0.420E-03
RMM:  20    -0.684344371746E+03   -0.45943E-05   -0.39853E-06  2250   0.207E-03    0.143E-03
RMM:  21    -0.684344373655E+03   -0.19088E-05   -0.30177E-06  1984   0.176E-03    0.177E-03
RMM:  22    -0.684344375978E+03   -0.23234E-05   -0.27434E-06  2105   0.167E-03    0.109E-03
RMM:  23    -0.684344376656E+03   -0.67793E-06   -0.20619E-06  1581   0.142E-03
  19 F= -.68434438E+03 E0= -.68415102E+03  d E =-.100426E+00
 trial-energy change:   -0.100426  1 .order   -0.100505   -0.117962   -0.083049
 step:   2.2772(harm=  2.2772)  dis= 0.11090  next Energy=  -684.443232 (dE=-0.199E+00)
 bond charge predicted
       N       E                     dE             d eps       ncg     rms          rms(c)
DAV:   1    -0.684058903779E+03    0.28547E+00   -0.12637E+02  3532   0.212E+01    0.228E+00
RMM:   2    -0.684516576499E+03   -0.45767E+00   -0.45144E+00  3563   0.348E+00    0.254E+00
RMM:   3    -0.684530908122E+03   -0.14332E-01   -0.52100E-01  3880   0.131E+00    0.284E+00
RMM:   4    -0.684470892309E+03    0.60016E-01   -0.92106E-02  4031   0.543E-01    0.166E+00
RMM:   5    -0.684450182171E+03    0.20710E-01   -0.30681E-02  3762   0.287E-01    0.996E-01
RMM:   6    -0.684446814207E+03    0.33680E-02   -0.12995E-02  3970   0.179E-01    0.762E-01
RMM:   7    -0.684451032314E+03   -0.42181E-02   -0.20384E-02  4214   0.192E-01    0.101E+00
RMM:   8    -0.684442368417E+03    0.86639E-02   -0.12123E-02  4026   0.147E-01    0.344E-01
RMM:   9    -0.684443402557E+03   -0.10341E-02   -0.35943E-03  4024   0.896E-02    0.401E-01
RMM:  10    -0.684442114155E+03    0.12884E-02   -0.15764E-03  4228   0.583E-02    0.130E-01
RMM:  11    -0.684442294851E+03   -0.18070E-03   -0.74072E-04  4926   0.366E-02    0.127E-01
RMM:  12    -0.684442286305E+03    0.85456E-05   -0.36972E-04  4704   0.232E-02    0.613E-02
RMM:  13    -0.684442349936E+03   -0.63631E-04   -0.23597E-04  4890   0.176E-02    0.434E-02
RMM:  14    -0.684442455735E+03   -0.10580E-03   -0.17220E-04  4934   0.141E-02    0.471E-02
RMM:  15    -0.684442556045E+03   -0.10031E-03   -0.12397E-04  4759   0.127E-02    0.223E-02
RMM:  16    -0.684442598260E+03   -0.42215E-04   -0.82265E-05  4767   0.905E-03    0.187E-02
RMM:  17    -0.684442668665E+03   -0.70405E-04   -0.66455E-05  4566   0.801E-03    0.135E-02
RMM:  18    -0.684442708391E+03   -0.39726E-04   -0.49492E-05  4152   0.655E-03    0.713E-03
RMM:  19    -0.684442747195E+03   -0.38804E-04   -0.39125E-05  3539   0.558E-03    0.999E-03
RMM:  20    -0.684442770917E+03   -0.23722E-04   -0.31126E-05  3046   0.476E-03    0.402E-03
RMM:  21    -0.684442782117E+03   -0.11200E-04   -0.24536E-05  2644   0.397E-03    0.552E-03
RMM:  22    -0.684442793791E+03   -0.11674E-04   -0.21104E-05  2689   0.373E-03    0.216E-03
RMM:  23    -0.684442797988E+03   -0.41970E-05   -0.16928E-05  2339   0.300E-03    0.200E-03
RMM:  24    -0.684442801801E+03   -0.38130E-05   -0.14533E-05  2236   0.273E-03    0.174E-03
RMM:  25    -0.684442804075E+03   -0.22739E-05   -0.12267E-05  2037   0.240E-03    0.113E-03
RMM:  26    -0.684442806335E+03   -0.22602E-05   -0.10607E-05  1910   0.220E-03    0.126E-03
RMM:  27    -0.684442808001E+03   -0.16654E-05   -0.91605E-06  1616   0.199E-03    0.766E-04
RMM:  28    -0.684442809476E+03   -0.14754E-05   -0.79353E-06  1389   0.181E-03    0.786E-04
RMM:  29    -0.684442811588E+03   -0.21117E-05   -0.71112E-06  1973   0.184E-03    0.581E-04
RMM:  30    -0.684442812572E+03   -0.98436E-06   -0.60797E-06  1081   0.156E-03
  20 F= -.68444281E+03 E0= -.68424986E+03  d E =-.198862E+00
 curvature:  -1.82 expect dE=-0.234E+00 dE for cont linesearch -0.109E-05
 trial: gam= 0.67879 g(F)=  0.128E+00 g(S)=  0.000E+00 ort = 0.410E-03 (trialstep = 0.995E+00)
 search vector abs. value=  0.258E+00
 bond charge predicted
       N       E                     dE             d eps       ncg     rms          rms(c)
DAV:   1    -0.684384657147E+03    0.58154E-01   -0.45404E+01  3524   0.122E+01    0.123E+00
RMM:   2    -0.684523765088E+03   -0.13911E+00   -0.15326E+00  3565   0.205E+00    0.983E-01
RMM:   3    -0.684549200443E+03   -0.25435E-01   -0.18555E-01  3888   0.780E-01    0.155E+00
RMM:   4    -0.684531583279E+03    0.17617E-01   -0.30765E-02  3903   0.329E-01    0.879E-01
RMM:   5    -0.684526322481E+03    0.52608E-02   -0.10550E-02  4248   0.159E-01    0.460E-01
RMM:   6    -0.684528044397E+03   -0.17219E-02   -0.65910E-03  4042   0.109E-01    0.558E-01
RMM:   7    -0.684526079531E+03    0.19649E-02   -0.58013E-03  3909   0.105E-01    0.336E-01
RMM:   8    -0.684525695447E+03    0.38408E-03   -0.28863E-03  3971   0.722E-02    0.205E-01
RMM:   9    -0.684525867494E+03   -0.17205E-03   -0.12323E-03  4084   0.508E-02    0.189E-01
RMM:  10    -0.684525571115E+03    0.29638E-03   -0.55225E-04  4570   0.306E-02    0.553E-02
RMM:  11    -0.684525614786E+03   -0.43671E-04   -0.33993E-04  4688   0.207E-02    0.557E-02
RMM:  12    -0.684525620851E+03   -0.60651E-05   -0.22153E-04  4657   0.147E-02    0.337E-02
RMM:  13    -0.684525639440E+03   -0.18588E-04   -0.14230E-04  4750   0.111E-02    0.224E-02
RMM:  14    -0.684525674735E+03   -0.35296E-04   -0.10567E-04  4682   0.898E-03    0.330E-02
RMM:  15    -0.684525686896E+03   -0.12161E-04   -0.74383E-05  4368   0.757E-03    0.118E-02
RMM:  16    -0.684525702351E+03   -0.15454E-04   -0.53374E-05  3706   0.609E-03    0.128E-02
RMM:  17    -0.684525716187E+03   -0.13836E-04   -0.39962E-05  3333   0.502E-03    0.883E-03
RMM:  18    -0.684525723273E+03   -0.70858E-05   -0.29383E-05  2636   0.398E-03    0.506E-03
RMM:  19    -0.684525733241E+03   -0.99681E-05   -0.23039E-05  2560   0.351E-03    0.650E-03
RMM:  20    -0.684525742050E+03   -0.88096E-05   -0.18638E-05  2537   0.317E-03    0.255E-03
RMM:  21    -0.684525746463E+03   -0.44131E-05   -0.14453E-05  2217   0.256E-03    0.227E-03
RMM:  22    -0.684525752651E+03   -0.61880E-05   -0.12299E-05  2340   0.243E-03    0.300E-03
RMM:  23    -0.684525756400E+03   -0.37487E-05   -0.10106E-05  2190   0.216E-03    0.139E-03
RMM:  24    -0.684525759181E+03   -0.27813E-05   -0.87177E-06  2151   0.200E-03    0.156E-03
RMM:  25    -0.684525760339E+03   -0.11573E-05   -0.68912E-06  1470   0.162E-03    0.637E-04
RMM:  26    -0.684525762357E+03   -0.20183E-05   -0.59461E-06  1666   0.155E-03    0.837E-04
RMM:  27    -0.684525763383E+03   -0.10259E-05   -0.50706E-06  1324   0.137E-03    0.616E-04
RMM:  28    -0.684525764065E+03   -0.68227E-06   -0.43475E-06   993   0.124E-03
  21 F= -.68452576E+03 E0= -.68433282E+03  d E =-.829515E-01
 trial-energy change:   -0.082951  1 .order   -0.082726   -0.127860   -0.037591
 step:   1.4003(harm=  1.4088)  dis= 0.07026  next Energy=  -684.533445 (dE=-0.906E-01)
 bond charge predicted
       N       E                     dE             d eps       ncg     rms          rms(c)
DAV:   1    -0.684510383208E+03    0.15380E-01   -0.75385E+00  3504   0.498E+00    0.489E-01
RMM:   2    -0.684532754575E+03   -0.22371E-01   -0.24500E-01  3568   0.830E-01    0.395E-01
RMM:   3    -0.684536750151E+03   -0.39956E-02   -0.31121E-02  3872   0.317E-01    0.626E-01
RMM:   4    -0.684534116426E+03    0.26337E-02   -0.52094E-03  3918   0.136E-01    0.361E-01
RMM:   5    -0.684533224684E+03    0.89174E-03   -0.17751E-03  4371   0.661E-02    0.184E-01
RMM:   6    -0.684533448384E+03   -0.22370E-03   -0.10404E-03  4142   0.421E-02    0.213E-01
RMM:   7    -0.684533281381E+03    0.16700E-03   -0.10608E-03  3926   0.428E-02    0.153E-01
RMM:   8    -0.684533150791E+03    0.13059E-03   -0.46692E-04  3924   0.293E-02    0.717E-02
RMM:   9    -0.684533194269E+03   -0.43477E-04   -0.19892E-04  4146   0.200E-02    0.744E-02
RMM:  10    -0.684533149105E+03    0.45163E-04   -0.85865E-05  4393   0.117E-02    0.235E-02
RMM:  11    -0.684533153274E+03   -0.41687E-05   -0.55187E-05  4413   0.820E-03    0.244E-02
RMM:  12    -0.684533154352E+03   -0.10779E-05   -0.36649E-05  3973   0.633E-03    0.166E-02
RMM:  13    -0.684533156674E+03   -0.23225E-05   -0.20575E-05  3365   0.470E-03    0.105E-02
RMM:  14    -0.684533161250E+03   -0.45751E-05   -0.13305E-05  2777   0.346E-03    0.116E-02
RMM:  15    -0.684533165793E+03   -0.45439E-05   -0.92908E-06  2635   0.312E-03    0.484E-03
RMM:  16    -0.684533168725E+03   -0.29320E-05   -0.58293E-06  2282   0.237E-03    0.494E-03
RMM:  17    -0.684533171424E+03   -0.26983E-05   -0.40230E-06  2135   0.187E-03    0.269E-03
RMM:  18    -0.684533172783E+03   -0.13589E-05   -0.27862E-06  1859   0.149E-03    0.179E-03
RMM:  19    -0.684533175961E+03   -0.31787E-05   -0.24496E-06  2146   0.152E-03    0.329E-03
RMM:  20    -0.684533177088E+03   -0.11263E-05   -0.17079E-06  1729   0.125E-03    0.113E-03
RMM:  21    -0.684533177567E+03   -0.47912E-06   -0.12760E-06  1208   0.103E-03
  22 F= -.68453318E+03 E0= -.68434024E+03  d E =-.903650E-01
 curvature:  -1.41 expect dE=-0.111E+00 dE for cont linesearch -0.387E-05
 trial: gam= 0.62762 g(F)=  0.788E-01 g(S)=  0.000E+00 ort =-0.841E-03 (trialstep = 0.108E+01)
 search vector abs. value=  0.179E+00
 bond charge predicted
       N       E                     dE             d eps       ncg     rms          rms(c)
DAV:   1    -0.684467123819E+03    0.66053E-01   -0.42037E+01  3508   0.115E+01    0.120E+00
RMM:   2    -0.684612307652E+03   -0.14518E+00   -0.14246E+00  3602   0.196E+00    0.136E+00
RMM:   3    -0.684616375920E+03   -0.40683E-02   -0.16543E-01  3804   0.741E-01    0.122E+00
RMM:   4    -0.684606738167E+03    0.96378E-02   -0.28147E-02  3891   0.312E-01    0.755E-01
RMM:   5    -0.684602123295E+03    0.46149E-02   -0.81359E-03  4279   0.148E-01    0.366E-01
RMM:   6    -0.684604107194E+03   -0.19839E-02   -0.54276E-03  4255   0.969E-02    0.515E-01
RMM:   7    -0.684603651601E+03    0.45559E-03   -0.33372E-03  3961   0.854E-02    0.415E-01
RMM:   8    -0.684602386646E+03    0.12650E-02   -0.16782E-03  4469   0.574E-02    0.169E-01
RMM:   9    -0.684602801213E+03   -0.41457E-03   -0.11551E-03  4530   0.432E-02    0.224E-01
RMM:  10    -0.684602438271E+03    0.36294E-03   -0.62424E-04  4176   0.332E-02    0.571E-02
RMM:  11    -0.684602496824E+03   -0.58553E-04   -0.27098E-04  4806   0.213E-02    0.579E-02
RMM:  12    -0.684602516061E+03   -0.19237E-04   -0.14708E-04  4764   0.129E-02    0.399E-02
RMM:  13    -0.684602533592E+03   -0.17532E-04   -0.88628E-05  4617   0.967E-03    0.196E-02
RMM:  14    -0.684602565872E+03   -0.32280E-04   -0.57899E-05  4430   0.712E-03    0.197E-02
RMM:  15    -0.684602626878E+03   -0.61006E-04   -0.42089E-05  4200   0.662E-03    0.139E-02
RMM:  16    -0.684602659270E+03   -0.32393E-04   -0.26921E-05  3509   0.494E-03    0.130E-02
RMM:  17    -0.684602688940E+03   -0.29670E-04   -0.19583E-05  3216   0.424E-03    0.824E-03
RMM:  18    -0.684602700961E+03   -0.12021E-04   -0.12582E-05  2468   0.323E-03    0.366E-03
RMM:  19    -0.684602726701E+03   -0.25741E-04   -0.10604E-05  2603   0.318E-03    0.607E-03
RMM:  20    -0.684602751366E+03   -0.24665E-04   -0.96207E-06  2653   0.304E-03    0.252E-03
RMM:  21    -0.684602755624E+03   -0.42581E-05   -0.52073E-06  2098   0.207E-03    0.174E-03
RMM:  22    -0.684602759864E+03   -0.42403E-05   -0.40519E-06  1968   0.184E-03    0.116E-03
RMM:  23    -0.684602763235E+03   -0.33705E-05   -0.34003E-06  2042   0.173E-03    0.110E-03
RMM:  24    -0.684602764918E+03   -0.16830E-05   -0.27320E-06  1691   0.149E-03    0.933E-04
RMM:  25    -0.684602765406E+03   -0.48832E-06   -0.21123E-06  1195   0.127E-03
  23 F= -.68460277E+03 E0= -.68440974E+03  d E =-.695878E-01
 trial-energy change:   -0.069588  1 .order   -0.069902   -0.084242   -0.055562
 step:   3.7873(harm=  3.1597)  dis= 0.15729  next Energy=  -684.667759 (dE=-0.135E+00)
 bond charge predicted
       N       E                     dE             d eps       ncg     rms          rms(c)
DAV:   1    -0.683509322416E+03    0.10934E+01   -0.26872E+02  3500   0.290E+01    0.353E+00
RMM:   2    -0.684651101774E+03   -0.11418E+01   -0.12103E+01  3554   0.508E+00    0.308E+00
RMM:   3    -0.684821083022E+03   -0.16998E+00   -0.13905E+00  3773   0.192E+00    0.376E+00
RMM:   4    -0.684694909374E+03    0.12617E+00   -0.19415E-01  3707   0.797E-01    0.210E+00
RMM:   5    -0.684660876981E+03    0.34032E-01   -0.51304E-02  4139   0.377E-01    0.139E+00
RMM:   6    -0.684652861368E+03    0.80156E-02   -0.27262E-02  3909   0.229E-01    0.111E+00
RMM:   7    -0.684658729365E+03   -0.58680E-02   -0.47866E-02  4329   0.298E-01    0.126E+00
RMM:   8    -0.684646053233E+03    0.12676E-01   -0.17118E-02  3884   0.183E-01    0.579E-01
RMM:   9    -0.684650494913E+03   -0.44417E-02   -0.13698E-02  3932   0.146E-01    0.782E-01
RMM:  10    -0.684646175821E+03    0.43191E-02   -0.66793E-03  3847   0.107E-01    0.295E-01
RMM:  11    -0.684646032041E+03    0.14378E-03   -0.20897E-03  3794   0.671E-02    0.235E-01
RMM:  12    -0.684645676299E+03    0.35574E-03   -0.13223E-03  3969   0.452E-02    0.115E-01
RMM:  13    -0.684645721546E+03   -0.45247E-04   -0.60485E-04  4371   0.294E-02    0.777E-02
RMM:  14    -0.684645809324E+03   -0.87778E-04   -0.31207E-04  4226   0.184E-02    0.544E-02
RMM:  15    -0.684645934461E+03   -0.12514E-03   -0.22691E-04  4184   0.154E-02    0.383E-02
RMM:  16    -0.684646110386E+03   -0.17593E-03   -0.16197E-04  4311   0.139E-02    0.491E-02
RMM:  17    -0.684646220486E+03   -0.11010E-03   -0.10745E-04  4125   0.116E-02    0.273E-02
[...]
RMM:  22    -0.684836452914E+03   -0.16501E-05   -0.58862E-07  1608   0.806E-04    0.750E-04
RMM:  23    -0.684836453254E+03   -0.34089E-06   -0.26014E-07  1021   0.613E-04
  45 F= -.68483645E+03 E0= -.68464302E+03  d E =-.140651E-02
 curvature:  -2.81 expect dE=-0.588E-02 dE for cont linesearch -0.331E-04
 ZBRENT: interpolating
 opt :   1.7476  next Energy=  -684.836481 (dE=-0.143E-02)
 bond charge predicted
       N       E                     dE             d eps       ncg     rms          rms(c)
DAV:   1    -0.684836392474E+03    0.60439E-04   -0.36577E-02  3734   0.280E-01    0.310E-02
RMM:   2    -0.684836541390E+03   -0.14892E-03   -0.93854E-04  3555   0.486E-02    0.793E-02
RMM:   3    -0.684836486531E+03    0.54859E-04   -0.11758E-04  3713   0.195E-02    0.273E-02
RMM:   4    -0.684836490709E+03   -0.41775E-05   -0.29873E-05  3465   0.940E-03    0.312E-02
RMM:   5    -0.684836483082E+03    0.76272E-05   -0.81793E-06  2916   0.494E-03    0.146E-02
RMM:   6    -0.684836482456E+03    0.62549E-06   -0.41803E-06  2386   0.290E-03
  46 F= -.68483648E+03 E0= -.68464304E+03  d E =-.143571E-02
 curvature:  -2.32 expect dE=-0.359E-02 dE for cont linesearch -0.321E-05
 trial: gam= 1.27646 g(F)=  0.155E-02 g(S)=  0.000E+00 ort =-0.813E-04 (trialstep = 0.459E+00)
 search vector abs. value=  0.914E-02
 bond charge predicted
       N       E                     dE             d eps       ncg     rms          rms(c)
DAV:   1    -0.684836745594E+03   -0.26251E-03   -0.24859E-01  3626   0.487E-01    0.756E-02
RMM:   2    -0.684837481786E+03   -0.73619E-03   -0.42236E-03  3645   0.809E-02    0.191E-01
RMM:   3    -0.684837150213E+03    0.33157E-03   -0.61027E-04  3740   0.342E-02    0.607E-02
RMM:   4    -0.684837180250E+03   -0.30037E-04   -0.14872E-04  3775   0.170E-02    0.687E-02
RMM:   5    -0.684837156203E+03    0.24047E-04   -0.48543E-05  3553   0.926E-03    0.433E-02
RMM:   6    -0.684837141048E+03    0.15155E-04   -0.24955E-05  3144   0.590E-03    0.170E-02
RMM:   7    -0.684837146296E+03   -0.52477E-05   -0.18689E-05  3125   0.440E-03    0.190E-02
RMM:   8    -0.684837147915E+03   -0.16188E-05   -0.12294E-05  2744   0.351E-03    0.103E-02
RMM:   9    -0.684837148322E+03   -0.40743E-06   -0.53621E-06  2201   0.216E-03
  47 F= -.68483715E+03 E0= -.68464371E+03  d E =-.665866E-03
 ZBRENT: can't locate minimum, use default step
 trial-energy change:   -0.000666  1 .order   -0.000683   -0.000661   -0.000705
 step:   1.8342(harm=  1.8342)  dis= 0.03589  next Energy=  -684.839483 (dE=-0.300E-02)
 bond charge predicted
       N       E                     dE             d eps       ncg     rms          rms(c)
DAV:   1    -0.684834839759E+03    0.23082E-02   -0.22260E+00  3630   0.146E+00    0.221E-01
RMM:   2    -0.684841131508E+03   -0.62917E-02   -0.38070E-02  3645   0.241E-01    0.542E-01
RMM:   3    -0.684838547548E+03    0.25840E-02   -0.56515E-03  3806   0.101E-01    0.170E-01
RMM:   4    -0.684838971335E+03   -0.42379E-03   -0.13582E-03  3979   0.491E-02    0.220E-01
RMM:   5    -0.684838674172E+03    0.29716E-03   -0.42388E-04  3715   0.272E-02    0.115E-01
RMM:   6    -0.684838595043E+03    0.79129E-04   -0.23370E-04  3719   0.169E-02    0.511E-02
RMM:   7    -0.684838677210E+03   -0.82167E-04   -0.18381E-04  3816   0.134E-02    0.611E-02
RMM:   8    -0.684838710444E+03   -0.33234E-04   -0.12009E-04  3762   0.107E-02    0.350E-02
RMM:   9    -0.684838720170E+03   -0.97259E-05   -0.57098E-05  3709   0.689E-03    0.143E-02
RMM:  10    -0.684838750464E+03   -0.30294E-04   -0.33084E-05  3042   0.468E-03    0.106E-02
RMM:  11    -0.684838761958E+03   -0.11494E-04   -0.19808E-05  2506   0.298E-03    0.604E-03
RMM:  12    -0.684838776978E+03   -0.15020E-04   -0.12690E-05  2376   0.233E-03    0.612E-03
RMM:  13    -0.684838794507E+03   -0.17529E-04   -0.88159E-06  2303   0.201E-03    0.574E-03
RMM:  14    -0.684838804400E+03   -0.98931E-05   -0.54580E-06  2167   0.157E-03    0.356E-03
RMM:  15    -0.684838817297E+03   -0.12896E-04   -0.39796E-06  2178   0.146E-03    0.395E-03
RMM:  16    -0.684838827119E+03   -0.98225E-05   -0.28017E-06  1999   0.128E-03    0.159E-03
RMM:  17    -0.684838833592E+03   -0.64730E-05   -0.18422E-06  1786   0.106E-03    0.219E-03
RMM:  18    -0.684838838932E+03   -0.53398E-05   -0.13573E-06  1546   0.942E-04    0.120E-03
RMM:  19    -0.684838840713E+03   -0.17805E-05   -0.74104E-07  1174   0.754E-04    0.695E-04
RMM:  20    -0.684838843338E+03   -0.26258E-05   -0.83424E-07  1511   0.820E-04    0.971E-04
RMM:  21    -0.684838843845E+03   -0.50626E-06   -0.38856E-07  1065   0.649E-04
  48 F= -.68483884E+03 E0= -.68464541E+03  d E =-.236139E-02
 curvature:  -8.95 expect dE=-0.187E-01 dE for cont linesearch -0.125E-02
 ZBRENT: increasing intervall
 opt :   4.5856  next Energy=  -684.840824 (dE=-0.434E-02)
 bond charge predicted
       N       E                     dE             d eps       ncg     rms          rms(c)
DAV:   1    -0.684825136195E+03    0.13707E-01   -0.89378E+00  3604   0.292E+00    0.447E-01
RMM:   2    -0.684850762069E+03   -0.25626E-01   -0.15712E-01  3643   0.487E-01    0.110E+00
RMM:   3    -0.684840263340E+03    0.10499E-01   -0.23571E-02  3810   0.203E-01    0.348E-01
RMM:   4    -0.684841873305E+03   -0.16100E-02   -0.55462E-03  3998   0.979E-02    0.444E-01
RMM:   5    -0.684840538407E+03    0.13349E-02   -0.16899E-03  3776   0.542E-02    0.233E-01
RMM:   6    -0.684840178321E+03    0.36009E-03   -0.91570E-04  3813   0.336E-02    0.104E-01
RMM:   7    -0.684840442620E+03   -0.26430E-03   -0.73347E-04  3903   0.270E-02    0.126E-01
RMM:   8    -0.684840477644E+03   -0.35024E-04   -0.48274E-04  3859   0.218E-02    0.689E-02
RMM:   9    -0.684840502588E+03   -0.24943E-04   -0.22275E-04  4118   0.139E-02    0.303E-02
RMM:  10    -0.684840581270E+03   -0.78682E-04   -0.12950E-04  4260   0.946E-03    0.203E-02
RMM:  11    -0.684840613181E+03   -0.31912E-04   -0.77694E-05  3604   0.586E-03    0.117E-02
RMM:  12    -0.684840651452E+03   -0.38271E-04   -0.49546E-05  2872   0.442E-03    0.120E-02
RMM:  13    -0.684840694216E+03   -0.42764E-04   -0.33628E-05  2796   0.378E-03    0.109E-02
RMM:  14    -0.684840720158E+03   -0.25942E-04   -0.21087E-05  2544   0.296E-03    0.736E-03
RMM:  15    -0.684840755588E+03   -0.35431E-04   -0.14987E-05  2547   0.277E-03    0.774E-03
RMM:  16    -0.684840779853E+03   -0.24265E-04   -0.10100E-05  2436   0.232E-03    0.327E-03
RMM:  17    -0.684840798002E+03   -0.18148E-04   -0.67521E-06  2361   0.193E-03    0.449E-03
RMM:  18    -0.684840813199E+03   -0.15197E-04   -0.47719E-06  2187   0.163E-03    0.224E-03
RMM:  19    -0.684840820296E+03   -0.70974E-05   -0.29365E-06  1753   0.126E-03    0.131E-03
RMM:  20    -0.684840837126E+03   -0.16830E-04   -0.42471E-06  2325   0.161E-03    0.193E-03
RMM:  21    -0.684840839671E+03   -0.25456E-05   -0.16684E-06  1506   0.104E-03    0.865E-04
RMM:  22    -0.684840840988E+03   -0.13166E-05   -0.10982E-06  1306   0.899E-04    0.653E-04
RMM:  23    -0.684840841827E+03   -0.83886E-06   -0.87485E-07  1381   0.849E-04
  49 F= -.68484084E+03 E0= -.68464742E+03  d E =-.435937E-02
 curvature: -14.20 expect dE=-0.789E-01 dE for cont linesearch -0.292E-03
 ZBRENT: increasing intervall
 opt :  10.0884  next Energy=  -684.839403 (dE=-0.292E-02)
 bond charge predicted
       N       E                     dE             d eps       ncg     rms          rms(c)
DAV:   1    -0.684771329279E+03    0.69512E-01   -0.36156E+01  3596   0.589E+00    0.920E-01
RMM:   2    -0.684878373082E+03   -0.10704E+00   -0.69797E-01  3636   0.989E-01    0.219E+00
RMM:   3    -0.684839540018E+03    0.38833E-01   -0.11036E-01  3817   0.415E-01    0.746E-01
RMM:   4    -0.684844834688E+03   -0.52947E-02   -0.22284E-02  3999   0.193E-01    0.904E-01
RMM:   5    -0.684838761812E+03    0.60729E-02   -0.67174E-03  3780   0.106E-01    0.473E-01
RMM:   6    -0.684837224574E+03    0.15372E-02   -0.35987E-03  3834   0.662E-02    0.218E-01
RMM:   7    -0.684838131338E+03   -0.90676E-03   -0.29752E-03  3942   0.544E-02    0.271E-01
RMM:   8    -0.684837914207E+03    0.21713E-03   -0.20472E-03  3930   0.457E-02    0.129E-01
RMM:   9    -0.684838002164E+03   -0.87957E-04   -0.89061E-04  4249   0.286E-02    0.693E-02
RMM:  10    -0.684838218996E+03   -0.21683E-03   -0.51735E-04  4520   0.192E-02    0.398E-02
RMM:  11    -0.684838301548E+03   -0.82552E-04   -0.31132E-04  4740   0.121E-02    0.239E-02
RMM:  12    -0.684838401126E+03   -0.99578E-04   -0.20008E-04  4344   0.887E-03    0.223E-02
RMM:  13    -0.684838510498E+03   -0.10937E-03   -0.13482E-04  4094   0.753E-03    0.201E-02
RMM:  14    -0.684838575083E+03   -0.64585E-04   -0.84719E-05  3595   0.577E-03    0.166E-02
RMM:  15    -0.684838686475E+03   -0.11139E-03   -0.61196E-05  3500   0.570E-03    0.157E-02
RMM:  16    -0.684838744935E+03   -0.58460E-04   -0.39430E-05  3062   0.445E-03    0.728E-03
RMM:  17    -0.684838798336E+03   -0.53402E-04   -0.26711E-05  2859   0.383E-03    0.949E-03
RMM:  18    -0.684838836919E+03   -0.38583E-04   -0.18080E-05  2620   0.309E-03    0.453E-03
RMM:  19    -0.684838856062E+03   -0.19143E-04   -0.11644E-05  2411   0.239E-03    0.257E-03
RMM:  20    -0.684838910950E+03   -0.54888E-04   -0.15646E-05  2782   0.314E-03    0.397E-03
RMM:  21    -0.684838922762E+03   -0.11812E-04   -0.70404E-06  2278   0.199E-03    0.182E-03
RMM:  22    -0.684838930840E+03   -0.80783E-05   -0.46569E-06  2019   0.164E-03    0.136E-03
RMM:  23    -0.684838936907E+03   -0.60671E-05   -0.38887E-06  2094   0.154E-03    0.113E-03
RMM:  24    -0.684838937753E+03   -0.84580E-06   -0.23753E-06  1444   0.117E-03
  50 F= -.68483894E+03 E0= -.68464551E+03  d E =-.245530E-02
 curvature:  69.87 expect dE= 0.155E+01 dE for cont linesearch  0.850E-02
 ZBRENT: bracketing found
 ZBRENT: interpolating
 opt :   6.1894  next Energy=  -684.841190 (dE=-0.471E-02)
 bond charge predicted
       N       E                     dE             d eps       ncg     rms          rms(c)
DAV:   1    -0.684809764957E+03    0.29172E-01   -0.18019E+01  3612   0.416E+00    0.658E-01
RMM:   2    -0.684864278347E+03   -0.54513E-01   -0.33428E-01  3676   0.705E-01    0.146E+00
RMM:   3    -0.684842027995E+03    0.22250E-01   -0.48780E-02  3827   0.293E-01    0.577E-01
RMM:   4    -0.684843085579E+03   -0.10576E-02   -0.11682E-02  4018   0.141E-01    0.557E-01
RMM:   5    -0.684841641503E+03    0.14441E-02   -0.35267E-03  3891   0.802E-02    0.392E-01
RMM:   6    -0.684840369630E+03    0.12719E-02   -0.17252E-03  3847   0.485E-02    0.143E-01
RMM:   7    -0.684840795257E+03   -0.42563E-03   -0.13436E-03  3963   0.377E-02    0.190E-01
RMM:   8    -0.684840750955E+03    0.44302E-04   -0.94660E-04  3900   0.318E-02    0.112E-01
RMM:   9    -0.684840721022E+03    0.29934E-04   -0.43202E-04  4053   0.207E-02    0.323E-02
RMM:  10    -0.684840834738E+03   -0.11372E-03   -0.25037E-04  4609   0.140E-02    0.402E-02
RMM:  11    -0.684840869941E+03   -0.35203E-04   -0.13875E-04  4100   0.854E-03    0.151E-02
RMM:  12    -0.684840913199E+03   -0.43258E-04   -0.89503E-05  3852   0.633E-03    0.166E-02
RMM:  13    -0.684840958266E+03   -0.45067E-04   -0.57785E-05  3410   0.492E-03    0.135E-02
RMM:  14    -0.684840989361E+03   -0.31096E-04   -0.36171E-05  2786   0.388E-03    0.101E-02
RMM:  15    -0.684841020551E+03   -0.31190E-04   -0.23495E-05  2620   0.319E-03    0.110E-02
RMM:  16    -0.684841057758E+03   -0.37206E-04   -0.17235E-05  2650   0.313E-03    0.504E-03
RMM:  17    -0.684841076856E+03   -0.19098E-04   -0.10581E-05  2443   0.238E-03    0.712E-03
RMM:  18    -0.684841093708E+03   -0.16851E-04   -0.71686E-06  2366   0.201E-03    0.297E-03
RMM:  19    -0.684841100151E+03   -0.64432E-05   -0.43002E-06  2019   0.146E-03    0.183E-03
RMM:  20    -0.684841112060E+03   -0.11909E-04   -0.38250E-06  2274   0.154E-03    0.310E-03
RMM:  21    -0.684841116857E+03   -0.47974E-05   -0.24918E-06  1871   0.124E-03    0.101E-03
RMM:  22    -0.684841118210E+03   -0.13534E-05   -0.14227E-06  1321   0.953E-04    0.895E-04
RMM:  23    -0.684841119099E+03   -0.88867E-06   -0.10379E-06  1287   0.861E-04
  51 F= -.68484112E+03 E0= -.68464770E+03  d E =-.463664E-02
 curvature:  -2.86 expect dE=-0.259E-01 dE for cont linesearch -0.186E-05
 trial: gam= 5.06598 g(F)=  0.907E-02 g(S)=  0.000E+00 ort =-0.770E-04 (trialstep = 0.604E-01)
 search vector abs. value=  0.243E+00
 bond charge predicted
       N       E                     dE             d eps       ncg     rms          rms(c)
DAV:   1    -0.684841476624E+03   -0.35841E-03   -0.11353E-01  3758   0.285E-01    0.485E-02
RMM:   2    -0.684841777965E+03   -0.30134E-03   -0.17479E-03  3625   0.485E-02    0.119E-01
RMM:   3    -0.684841650551E+03    0.12741E-03   -0.25935E-04  3649   0.210E-02    0.362E-02
RMM:   4    -0.684841669191E+03   -0.18640E-04   -0.65376E-05  3631   0.107E-02    0.473E-02
RMM:   5    -0.684841657411E+03    0.11779E-04   -0.18752E-05  3079   0.571E-03    0.270E-02
RMM:   6    -0.684841652086E+03    0.53253E-05   -0.10409E-05  2616   0.359E-03    0.102E-02
RMM:   7    -0.684841655850E+03   -0.37645E-05   -0.79277E-06  2522   0.282E-03    0.124E-02
RMM:   8    -0.684841657368E+03   -0.15175E-05   -0.47469E-06  2195   0.210E-03    0.697E-03
RMM:   9    -0.684841657822E+03   -0.45369E-06   -0.23242E-06  1944   0.142E-03
  52 F= -.68484166E+03 E0= -.68464823E+03  d E =-.538723E-03
 ZBRENT: can't locate minimum, use default step
 trial-energy change:   -0.000539  1 .order   -0.000546   -0.000524   -0.000568
 step:   0.2416(harm=  0.2416)  dis= 0.02496  next Energy=  -684.843569 (dE=-0.245E-02)
 bond charge predicted
       N       E                     dE             d eps       ncg     rms          rms(c)
DAV:   1    -0.684841438030E+03    0.21934E-03   -0.10193E+00  3614   0.856E-01    0.145E-01
RMM:   2    -0.684844169254E+03   -0.27312E-02   -0.16131E-02  3655   0.146E-01    0.356E-01
RMM:   3    -0.684843038608E+03    0.11306E-02   -0.24966E-03  3798   0.630E-02    0.109E-01
RMM:   4    -0.684843233414E+03   -0.19481E-03   -0.59589E-04  3920   0.313E-02    0.143E-01
RMM:   5    -0.684843123206E+03    0.11021E-03   -0.17862E-04  3666   0.172E-02    0.782E-02
RMM:   6    -0.684843084491E+03    0.38715E-04   -0.10455E-04  3629   0.108E-02    0.308E-02
RMM:   7    -0.684843122961E+03   -0.38470E-04   -0.78309E-05  3709   0.844E-03    0.366E-02
RMM:   8    -0.684843146231E+03   -0.23269E-04   -0.49405E-05  3483   0.640E-03    0.200E-02
RMM:   9    -0.684843154059E+03   -0.78288E-05   -0.25327E-05  2964   0.423E-03    0.941E-03
RMM:  10    -0.684843171666E+03   -0.17607E-04   -0.15052E-05  2506   0.299E-03    0.709E-03
RMM:  11    -0.684843178326E+03   -0.66597E-05   -0.92088E-06  2198   0.203E-03    0.361E-03
RMM:  12    -0.684843187537E+03   -0.92110E-05   -0.60167E-06  2170   0.164E-03    0.373E-03
RMM:  13    -0.684843200469E+03   -0.12932E-04   -0.44965E-06  2127   0.148E-03    0.343E-03
RMM:  14    -0.684843206721E+03   -0.62523E-05   -0.26790E-06  1790   0.116E-03    0.231E-03
RMM:  15    -0.684843215523E+03   -0.88020E-05   -0.22096E-06  1976   0.116E-03    0.256E-03
RMM:  16    -0.684843219736E+03   -0.42127E-05   -0.13282E-06  1501   0.925E-04    0.943E-04
RMM:  17    -0.684843222628E+03   -0.28919E-05   -0.90676E-07  1508   0.832E-04    0.123E-03
RMM:  18    -0.684843224284E+03   -0.16561E-05   -0.60185E-07  1310   0.714E-04    0.103E-03
RMM:  19    -0.684843224891E+03   -0.60661E-06   -0.35583E-07  1056   0.612E-04
  53 F= -.68484322E+03 E0= -.68464979E+03  d E =-.210579E-02
 curvature:  -5.22 expect dE=-0.419E-01 dE for cont linesearch -0.153E-02
 ZBRENT: increasing intervall
 opt :   0.6039  next Energy=  -684.845931 (dE=-0.481E-02)
 bond charge predicted
       N       E                     dE             d eps       ncg     rms          rms(c)
DAV:   1    -0.684839123960E+03    0.41003E-02   -0.40868E+00  3606   0.172E+00    0.292E-01
RMM:   2    -0.684850090147E+03   -0.10966E-01   -0.65710E-02  3655   0.295E-01    0.721E-01
RMM:   3    -0.684845491659E+03    0.45985E-02   -0.10187E-02  3807   0.126E-01    0.219E-01
RMM:   4    -0.684846278619E+03   -0.78696E-03   -0.23385E-03  3987   0.614E-02    0.289E-01
RMM:   5    -0.684845753456E+03    0.52516E-03   -0.69922E-04  3765   0.343E-02    0.157E-01
RMM:   6    -0.684845590983E+03    0.16247E-03   -0.40491E-04  3731   0.215E-02    0.624E-02
RMM:   7    -0.684845714719E+03   -0.12374E-03   -0.30784E-04  3888   0.168E-02    0.745E-02
RMM:   8    -0.684845762267E+03   -0.47548E-04   -0.19356E-04  3810   0.128E-02    0.398E-02
RMM:   9    -0.684845782708E+03   -0.20441E-04   -0.96980E-05  3927   0.846E-03    0.192E-02
RMM:  10    -0.684845827641E+03   -0.44933E-04   -0.57743E-05  3426   0.584E-03    0.135E-02
RMM:  11    -0.684845845213E+03   -0.17572E-04   -0.35274E-05  2723   0.381E-03    0.686E-03
RMM:  12    -0.684845868943E+03   -0.23730E-04   -0.22735E-05  2519   0.301E-03    0.716E-03
RMM:  13    -0.684845899494E+03   -0.30550E-04   -0.16070E-05  2487   0.267E-03    0.648E-03
RMM:  14    -0.684845916545E+03   -0.17051E-04   -0.10005E-05  2376   0.210E-03    0.468E-03
RMM:  15    -0.684845941007E+03   -0.24462E-04   -0.76852E-06  2404   0.206E-03    0.467E-03
RMM:  16    -0.684845952741E+03   -0.11735E-04   -0.47757E-06  2160   0.159E-03    0.189E-03
RMM:  17    -0.684845965791E+03   -0.13050E-04   -0.35591E-06  2214   0.146E-03    0.204E-03
RMM:  18    -0.684845974335E+03   -0.85437E-05   -0.24324E-06  1812   0.120E-03    0.152E-03
RMM:  19    -0.684845977570E+03   -0.32352E-05   -0.14059E-06  1458   0.961E-04    0.136E-03
RMM:  20    -0.684845982194E+03   -0.46243E-05   -0.15566E-06  1864   0.105E-03    0.131E-03
RMM:  21    -0.684845982880E+03   -0.68575E-06   -0.71043E-07  1191   0.774E-04
  54 F= -.68484598E+03 E0= -.68465253E+03  d E =-.486378E-02
 curvature:  -9.23 expect dE=-0.644E-01 dE for cont linesearch -0.184E-02
 ZBRENT: increasing intervall
 opt :   1.3287  next Energy=  -684.849950 (dE=-0.883E-02)
 bond charge predicted
       N       E                     dE             d eps       ncg     rms          rms(c)
DAV:   1    -0.684822313422E+03    0.23669E-01   -0.16443E+01  3596   0.345E+00    0.592E-01
RMM:   2    -0.684866898892E+03   -0.44585E-01   -0.27723E-01  3644   0.597E-01    0.145E+00
RMM:   3    -0.684849253997E+03    0.17645E-01   -0.44420E-02  3821   0.256E-01    0.451E-01
RMM:   4    -0.684852118591E+03   -0.28646E-02   -0.95711E-03  4014   0.121E-01    0.584E-01
RMM:   5    -0.684849752327E+03    0.23663E-02   -0.27446E-03  3790   0.671E-02    0.311E-01
RMM:   6    -0.684849062452E+03    0.68987E-03   -0.15966E-03  3831   0.423E-02    0.130E-01
RMM:   7    -0.684849463936E+03   -0.40148E-03   -0.12190E-03  3959   0.337E-02    0.154E-01
RMM:   8    -0.684849509088E+03   -0.45152E-04   -0.77754E-04  3913   0.262E-02    0.757E-02
RMM:   9    -0.684849575788E+03   -0.66701E-04   -0.37733E-04  4273   0.171E-02    0.432E-02
RMM:  10    -0.684849707888E+03   -0.13210E-03   -0.22599E-04  4386   0.119E-02    0.259E-02
RMM:  11    -0.684849755755E+03   -0.47867E-04   -0.13846E-04  4125   0.770E-03    0.139E-02
RMM:  12    -0.684849817368E+03   -0.61613E-04   -0.89372E-05  3414   0.582E-03    0.140E-02
RMM:  13    -0.684849897683E+03   -0.80315E-04   -0.62014E-05  3310   0.518E-03    0.128E-02
RMM:  14    -0.684849945038E+03   -0.47356E-04   -0.39217E-05  2912   0.410E-03    0.103E-02
RMM:  15    -0.684850017989E+03   -0.72951E-04   -0.29421E-05  2916   0.404E-03    0.960E-03
RMM:  16    -0.684850051313E+03   -0.33324E-04   -0.18597E-05  2678   0.311E-03    0.435E-03
RMM:  17    -0.684850083951E+03   -0.32638E-04   -0.12745E-05  2590   0.270E-03    0.544E-03
RMM:  18    -0.684850107276E+03   -0.23325E-04   -0.88697E-06  2436   0.225E-03    0.359E-03
slurmstepd: error: *** STEP 67461601.0 ON b01r3n19 CANCELLED AT 2024-07-19T01:16:02 ***
slurmstepd: error: *** JOB 67461601 ON b01r3n19 CANCELLED AT 2024-07-19T01:16:02 ***
