<?xml version="1.0" encoding="ISO-8859-1"?>
<modeling>
 <generator>
  <i name="program" type="string">vasp </i>
  <i name="version" type="string">6.3.2  </i>
  <i name="subversion" type="string">27Jun22 (build Mar 15 2023 15:45:48) complex                          parallel </i>
  <i name="platform" type="string">LinuxIFC </i>
  <i name="date" type="string">2024 07 19 </i>
  <i name="time" type="string">01:28:14 </i>
 </generator>
 <incar>
  <i type="string" name="SYSTEM">ni3al</i>
  <i type="int" name="ISTART">     0</i>
  <i type="string" name="PREC">Accurate</i>
  <i type="string" name="ALGO">Fast</i>
  <i name="AMIN">      0.01000000</i>
  <i type="int" name="ICHARG">     2</i>
  <i type="int" name="NELM">   150</i>
  <i type="int" name="IBRION">     1</i>
  <i name="EDIFF">      0.00000100</i>
  <i name="EDIFFG">     -0.01000000</i>
  <i type="int" name="NSW">   300</i>
  <i type="int" name="ISIF">     2</i>
  <i name="ENCUT">    530.00000000</i>
  <i type="string" name="LREAL">Auto</i>
  <i type="int" name="ISMEAR">     0</i>
  <i name="SIGMA">      0.10000000</i>
  <i type="int" name="LMAXMIX">     4</i>
  <i type="logical" name="LWAVE"> F  </i>
  <i type="logical" name="LCHARG"> F  </i>
 </incar>
 <primitive_cell>
  <structure name="primitive_cell" >
   <crystal>
    <varray name="basis" >
     <v>       9.28426200       0.00000000       0.00000000 </v>
     <v>       0.00000000      10.72054200       0.00000000 </v>
     <v>       0.00000000       0.00000000      18.22724200 </v>
    </varray>
    <i name="volume">   1814.19969640 </i>
    <varray name="rec_basis" >
     <v>       0.10770915       0.00000000       0.00000000 </v>
     <v>       0.00000000       0.09327887       0.00000000 </v>
     <v>       0.00000000       0.00000000       0.05486294 </v>
    </varray>
   </crystal>
   <varray name="positions" >
    <v>       0.00000000       0.00000000       0.31213000 </v>
    <v>       0.16666700       0.25000000       0.31213000 </v>
    <v>       0.99968279       0.33319587       0.43834984 </v>
    <v>       0.16656598       0.08351945       0.43886598 </v>
    <v>       0.00000000       0.16666600       0.03482200 </v>
    <v>       0.16666700       0.41666600       0.03482200 </v>
    <v>       0.00000000       0.33333300       0.17351800 </v>
    <v>       0.16666700       0.08333300       0.17351800 </v>
    <v>       0.33333300       0.00000000       0.31213000 </v>
    <v>       0.50000000       0.25000000       0.31213000 </v>
    <v>       0.33338678       0.33366054       0.43974223 </v>
    <v>       0.50011010       0.08341478       0.43806962 </v>
    <v>       0.33333300       0.16666600       0.03482200 </v>
    <v>       0.50000000       0.41666600       0.03482200 </v>
    <v>       0.33333300       0.33333400       0.17351800 </v>
    <v>       0.50000000       0.08333300       0.17351800 </v>
    <v>       0.66666700       0.00000000       0.31213000 </v>
    <v>       0.83333300       0.25000000       0.31213000 </v>
    <v>       0.66637568       0.33376592       0.43935492 </v>
    <v>       0.83301494       0.08319251       0.43796845 </v>
    <v>       0.66666700       0.16666600       0.03482200 </v>
    <v>       0.83333300       0.41666600       0.03482200 </v>
    <v>       0.66666700       0.33333300       0.17351800 </v>
    <v>       0.83333300       0.08333300       0.17351800 </v>
    <v>       0.00000000       0.50000000       0.31213000 </v>
    <v>       0.16666700       0.75000000       0.31213000 </v>
    <v>       0.99995119       0.83333255       0.43919414 </v>
    <v>       0.16670218       0.58328063       0.44211007 </v>
    <v>       0.00000000       0.66666600       0.03482200 </v>
    <v>       0.16666700       0.91666600       0.03482200 </v>
    <v>       0.00000000       0.83333300       0.17351800 </v>
    <v>       0.16666700       0.58333300       0.17351800 </v>
    <v>       0.33333300       0.50000000       0.31213000 </v>
    <v>       0.50000000       0.75000000       0.31213000 </v>
    <v>       0.33327079       0.83298180       0.44227919 </v>
    <v>       0.49958892       0.58293251       0.44924816 </v>
    <v>       0.33333300       0.66666600       0.03482200 </v>
    <v>       0.50000000       0.91666600       0.03482200 </v>
    <v>       0.33333300       0.83333300       0.17351800 </v>
    <v>       0.50000000       0.58333300       0.17351800 </v>
    <v>       0.66666700       0.50000000       0.31213000 </v>
    <v>       0.83333300       0.75000000       0.31213000 </v>
    <v>       0.66636497       0.83315110       0.43908366 </v>
    <v>       0.83255852       0.58366863       0.43979589 </v>
    <v>       0.66666700       0.66666600       0.03482200 </v>
    <v>       0.83333300       0.91666600       0.03482200 </v>
    <v>       0.66666700       0.83333300       0.17351800 </v>
    <v>       0.83333300       0.58333300       0.17351800 </v>
    <v>       0.49870311       0.58034186       0.53077669 </v>
    <v>       0.00000000       0.00000000       0.00000000 </v>
    <v>       0.16666700       0.25000000       0.00000000 </v>
    <v>       0.00000000       0.00000000       0.41654900 </v>
    <v>       0.16666700       0.25000000       0.41654900 </v>
    <v>       0.00000000       0.16666600       0.13894900 </v>
    <v>       0.16666700       0.41666600       0.13894900 </v>
    <v>       0.00000000       0.33333300       0.27764900 </v>
    <v>       0.16666700       0.08333300       0.27764900 </v>
    <v>       0.33333300       0.00000000       0.00000000 </v>
    <v>       0.50000000       0.25000000       0.00000000 </v>
    <v>       0.33333300       0.00000000       0.41654900 </v>
    <v>       0.50000000       0.25000000       0.41654900 </v>
    <v>       0.33333300       0.16666600       0.13894900 </v>
    <v>       0.50000000       0.41666600       0.13894900 </v>
    <v>       0.33333300       0.33333400       0.27764900 </v>
    <v>       0.50000000       0.08333300       0.27764900 </v>
    <v>       0.66666700       0.00000000       0.00000000 </v>
    <v>       0.83333300       0.25000000       0.00000000 </v>
    <v>       0.66666700       0.00000000       0.41654900 </v>
    <v>       0.83333300       0.25000000       0.41654900 </v>
    <v>       0.66666700       0.16666600       0.13894900 </v>
    <v>       0.83333300       0.41666600       0.13894900 </v>
    <v>       0.66666700       0.33333300       0.27764900 </v>
    <v>       0.83333300       0.08333300       0.27764900 </v>
    <v>       0.00000000       0.50000000       0.00000000 </v>
    <v>       0.16666700       0.75000000       0.00000000 </v>
    <v>       0.00000000       0.50000000       0.41654900 </v>
    <v>       0.16666700       0.75000000       0.41654900 </v>
    <v>       0.00000000       0.66666600       0.13894900 </v>
    <v>       0.16666700       0.91666600       0.13894900 </v>
    <v>       0.00000000       0.83333300       0.27764900 </v>
    <v>       0.16666700       0.58333300       0.27764900 </v>
    <v>       0.33333300       0.50000000       0.00000000 </v>
    <v>       0.50000000       0.75000000       0.00000000 </v>
    <v>       0.33333300       0.50000000       0.41654900 </v>
    <v>       0.50000000       0.75000000       0.41654900 </v>
    <v>       0.33333300       0.66666600       0.13894900 </v>
    <v>       0.50000000       0.91666600       0.13894900 </v>
    <v>       0.33333300       0.83333300       0.27764900 </v>
    <v>       0.50000000       0.58333300       0.27764900 </v>
    <v>       0.66666700       0.50000000       0.00000000 </v>
    <v>       0.83333300       0.75000000       0.00000000 </v>
    <v>       0.66666700       0.50000000       0.41654900 </v>
    <v>       0.83333300       0.75000000       0.41654900 </v>
    <v>       0.66666700       0.66666600       0.13894900 </v>
    <v>       0.83333300       0.91666600       0.13894900 </v>
    <v>       0.66666700       0.83333300       0.27764900 </v>
    <v>       0.83333300       0.58333300       0.27764900 </v>
    <v>       0.24290829       0.63967860       0.58708232 </v>
   </varray>
  </structure>
  <varray name="primitive_index" >
   <v type="int" >        1 </v>
   <v type="int" >        2 </v>
   <v type="int" >        3 </v>
   <v type="int" >        4 </v>
   <v type="int" >        5 </v>
   <v type="int" >        6 </v>
   <v type="int" >        7 </v>
   <v type="int" >        8 </v>
   <v type="int" >        9 </v>
   <v type="int" >       10 </v>
   <v type="int" >       11 </v>
   <v type="int" >       12 </v>
   <v type="int" >       13 </v>
   <v type="int" >       14 </v>
   <v type="int" >       15 </v>
   <v type="int" >       16 </v>
   <v type="int" >       17 </v>
   <v type="int" >       18 </v>
   <v type="int" >       19 </v>
   <v type="int" >       20 </v>
   <v type="int" >       21 </v>
   <v type="int" >       22 </v>
   <v type="int" >       23 </v>
   <v type="int" >       24 </v>
   <v type="int" >       25 </v>
   <v type="int" >       26 </v>
   <v type="int" >       27 </v>
   <v type="int" >       28 </v>
   <v type="int" >       29 </v>
   <v type="int" >       30 </v>
   <v type="int" >       31 </v>
   <v type="int" >       32 </v>
   <v type="int" >       33 </v>
   <v type="int" >       34 </v>
   <v type="int" >       35 </v>
   <v type="int" >       36 </v>
   <v type="int" >       37 </v>
   <v type="int" >       38 </v>
   <v type="int" >       39 </v>
   <v type="int" >       40 </v>
   <v type="int" >       41 </v>
   <v type="int" >       42 </v>
   <v type="int" >       43 </v>
   <v type="int" >       44 </v>
   <v type="int" >       45 </v>
   <v type="int" >       46 </v>
   <v type="int" >       47 </v>
   <v type="int" >       48 </v>
   <v type="int" >       49 </v>
   <v type="int" >       50 </v>
   <v type="int" >       51 </v>
   <v type="int" >       52 </v>
   <v type="int" >       53 </v>
   <v type="int" >       54 </v>
   <v type="int" >       55 </v>
   <v type="int" >       56 </v>
   <v type="int" >       57 </v>
   <v type="int" >       58 </v>
   <v type="int" >       59 </v>
   <v type="int" >       60 </v>
   <v type="int" >       61 </v>
   <v type="int" >       62 </v>
   <v type="int" >       63 </v>
   <v type="int" >       64 </v>
   <v type="int" >       65 </v>
   <v type="int" >       66 </v>
   <v type="int" >       67 </v>
   <v type="int" >       68 </v>
   <v type="int" >       69 </v>
   <v type="int" >       70 </v>
   <v type="int" >       71 </v>
   <v type="int" >       72 </v>
   <v type="int" >       73 </v>
   <v type="int" >       74 </v>
   <v type="int" >       75 </v>
   <v type="int" >       76 </v>
   <v type="int" >       77 </v>
   <v type="int" >       78 </v>
   <v type="int" >       79 </v>
   <v type="int" >       80 </v>
   <v type="int" >       81 </v>
   <v type="int" >       82 </v>
   <v type="int" >       83 </v>
   <v type="int" >       84 </v>
   <v type="int" >       85 </v>
   <v type="int" >       86 </v>
   <v type="int" >       87 </v>
   <v type="int" >       88 </v>
   <v type="int" >       89 </v>
   <v type="int" >       90 </v>
   <v type="int" >       91 </v>
   <v type="int" >       92 </v>
   <v type="int" >       93 </v>
   <v type="int" >       94 </v>
   <v type="int" >       95 </v>
   <v type="int" >       96 </v>
   <v type="int" >       97 </v>
   <v type="int" >       98 </v>
  </varray>
 </primitive_cell>
 <kpoints>
  <generation param="Gamma">
   <v type="int" name="divisions">       4        3        1 </v>
   <v name="usershift">      0.00000000       0.00000000       0.00000000 </v>
   <v name="genvec1">      0.25000000       0.00000000       0.00000000 </v>
   <v name="genvec2">      0.00000000       0.33333333       0.00000000 </v>
   <v name="genvec3">      0.00000000       0.00000000       1.00000000 </v>
   <v name="shift">      0.00000000       0.00000000       0.00000000 </v>
  </generation>
  <varray name="kpointlist" >
   <v>       0.00000000       0.00000000       0.00000000 </v>
   <v>       0.25000000       0.00000000       0.00000000 </v>
   <v>       0.50000000       0.00000000       0.00000000 </v>
   <v>       0.00000000       0.33333333       0.00000000 </v>
   <v>       0.25000000       0.33333333       0.00000000 </v>
   <v>       0.25000000      -0.33333333       0.00000000 </v>
   <v>       0.50000000       0.33333333       0.00000000 </v>
  </varray>
  <varray name="weights" >
   <v>       0.08333333 </v>
   <v>       0.16666667 </v>
   <v>       0.08333333 </v>
   <v>       0.16666667 </v>
   <v>       0.16666667 </v>
   <v>       0.16666667 </v>
   <v>       0.16666667 </v>
  </varray>
 </kpoints>
 <parameters>
  <separator name="general" >
   <i type="string" name="SYSTEM">ni3al</i>
   <i type="logical" name="LCOMPAT"> F  </i>
  </separator>
  <separator name="electronic" >
   <i type="string" name="PREC">accura</i>
   <i name="ENMAX">    530.00000000</i>
   <i name="ENAUG">    644.87300000</i>
   <i name="EDIFF">      0.00000100</i>
   <i type="int" name="IALGO">    68</i>
   <i type="int" name="IWAVPR">    11</i>
   <i type="int" name="NBANDS">   250</i>
   <i type="int" name="NBANDSLOW">    -1</i>
   <i type="int" name="NBANDSHIGH">    -1</i>
   <i name="NELECT">    400.00000000</i>
   <i type="int" name="TURBO">     0</i>
   <i type="int" name="IRESTART">     0</i>
   <i type="int" name="NREBOOT">     0</i>
   <i type="int" name="NMIN">     0</i>
   <i name="EREF">      0.00000000</i>
   <separator name="electronic smearing" >
    <i type="int" name="ISMEAR">     0</i>
    <i name="SIGMA">      0.10000000</i>
    <i name="KSPACING">      0.50000000</i>
    <i type="logical" name="KGAMMA"> T  </i>
    <i type="logical" name="KBLOWUP"> T  </i>
   </separator>
   <separator name="electronic projectors" >
    <i type="logical" name="LREAL"> T  </i>
    <v name="ROPT">     -0.00025000     -0.00025000     -0.00025000     -0.00025000</v>
    <i type="int" name="LMAXPAW">  -100</i>
    <i type="int" name="LMAXMIX">     4</i>
    <i type="logical" name="NLSPLINE"> F  </i>
   </separator>
   <separator name="electronic startup" >
    <i type="int" name="ISTART">     0</i>
    <i type="int" name="ICHARG">     2</i>
    <i type="int" name="INIWAV">     1</i>
   </separator>
   <separator name="electronic spin" >
    <i type="int" name="ISPIN">     1</i>
    <i type="logical" name="LNONCOLLINEAR"> F  </i>
    <v name="MAGMOM">      1.00000000      1.00000000      1.00000000      1.00000000      1.00000000      1.00000000      1.00000000      1.00000000      1.00000000      1.00000000      1.00000000      1.00000000      1.00000000      1.00000000      1.00000000      1.00000000      1.00000000      1.00000000      1.00000000      1.00000000
      1.00000000      1.00000000      1.00000000      1.00000000      1.00000000      1.00000000      1.00000000      1.00000000      1.00000000      1.00000000      1.00000000      1.00000000      1.00000000      1.00000000      1.00000000      1.00000000      1.00000000      1.00000000      1.00000000      1.00000000
      1.00000000      1.00000000      1.00000000      1.00000000      1.00000000      1.00000000      1.00000000      1.00000000      1.00000000      1.00000000      1.00000000      1.00000000      1.00000000      1.00000000      1.00000000      1.00000000      1.00000000      1.00000000      1.00000000      1.00000000
      1.00000000      1.00000000      1.00000000      1.00000000      1.00000000      1.00000000      1.00000000      1.00000000      1.00000000      1.00000000      1.00000000      1.00000000      1.00000000      1.00000000      1.00000000      1.00000000      1.00000000      1.00000000      1.00000000      1.00000000
      1.00000000      1.00000000      1.00000000      1.00000000      1.00000000      1.00000000      1.00000000      1.00000000      1.00000000      1.00000000      1.00000000      1.00000000      1.00000000      1.00000000      1.00000000      1.00000000      1.00000000      1.00000000</v>
    <i name="NUPDOWN">     -1.00000000</i>
    <i type="logical" name="LSORBIT"> F  </i>
    <v name="SAXIS">      0.00000000      0.00000000      1.00000000</v>
    <i type="logical" name="LSPIRAL"> F  </i>
    <v name="QSPIRAL">      0.00000000      0.00000000      0.00000000</v>
    <i type="logical" name="LZEROZ"> F  </i>
   </separator>
   <separator name="electronic exchange-correlation" >
    <i type="logical" name="LASPH"> F  </i>
    <i type="logical" name="LMETAGGA"> F  </i>
   </separator>
   <separator name="electronic convergence" >
    <i type="int" name="NELM">   150</i>
    <i type="int" name="NELMDL">    -5</i>
    <i type="int" name="NELMIN">     2</i>
    <i name="ENINI">    530.00000000</i>
    <separator name="electronic convergence detail" >
     <i type="logical" name="LDIAG"> T  </i>
     <i type="logical" name="LSUBROT"> F  </i>
     <i name="WEIMIN">      0.00100000</i>
     <i name="EBREAK">      0.00000000</i>
     <i name="DEPER">      0.30000000</i>
     <i type="int" name="NRMM">     4</i>
     <i name="TIME">      0.40000000</i>
    </separator>
   </separator>
   <separator name="electronic mixer" >
    <i name="AMIX">      0.40000000</i>
    <i name="BMIX">      1.00000000</i>
    <i name="AMIN">      0.01000000</i>
    <i name="AMIX_MAG">      1.60000000</i>
    <i name="BMIX_MAG">      1.00000000</i>
    <separator name="electronic mixer details" >
     <i type="int" name="IMIX">     4</i>
     <i type="logical" name="MIXFIRST"> F  </i>
     <i type="int" name="MAXMIX">   -45</i>
     <i name="WC">    100.00000000</i>
     <i type="int" name="INIMIX">     1</i>
     <i type="int" name="MIXPRE">     1</i>
     <i type="int" name="MREMOVE">     5</i>
    </separator>
   </separator>
   <separator name="electronic dipolcorrection" >
    <i type="logical" name="LDIPOL"> F  </i>
    <i type="logical" name="LMONO"> F  </i>
    <i type="int" name="IDIPOL">     0</i>
    <i name="EPSILON">      1.00000000</i>
    <v name="DIPOL">   -100.00000000   -100.00000000   -100.00000000</v>
    <i name="EFIELD">      0.00000000</i>
   </separator>
  </separator>
  <separator name="grids" >
   <i type="int" name="NGX">    70</i>
   <i type="int" name="NGY">    80</i>
   <i type="int" name="NGZ">   140</i>
   <i type="int" name="NGXF">   140</i>
   <i type="int" name="NGYF">   160</i>
   <i type="int" name="NGZF">   280</i>
   <i type="logical" name="ADDGRID"> F  </i>
  </separator>
  <separator name="ionic" >
   <i type="int" name="NSW">   300</i>
   <i type="int" name="IBRION">     1</i>
   <i type="int" name="MDALGO">     0</i>
   <i type="int" name="ISIF">     2</i>
   <i name="PSTRESS">      0.00000000</i>
   <i name="EDIFFG">     -0.01000000</i>
   <i type="int" name="NFREE">     0</i>
   <i name="POTIM">      0.50000000</i>
   <i name="SMASS">     -3.00000000</i>
   <i name="SCALEE">      1.00000000</i>
  </separator>
  <separator name="ionic md" >
   <i name="TEBEG">      0.00010000</i>
   <i name="TEEND">      0.00010000</i>
   <i type="int" name="NBLOCK">     1</i>
   <i type="int" name="KBLOCK">   300</i>
   <i type="int" name="NPACO">   256</i>
   <i name="APACO">     10.00000000</i>
  </separator>
  <separator name="symmetry" >
   <i type="int" name="ISYM">     2</i>
   <i name="SYMPREC">      0.00001000</i>
  </separator>
  <separator name="dos" >
   <i type="int" name="LORBIT">     0</i>
   <v name="RWIGS">     -1.00000000     -1.00000000     -1.00000000     -1.00000000</v>
   <i type="int" name="NEDOS">   301</i>
   <i name="EMIN">     10.00000000</i>
   <i name="EMAX">    -10.00000000</i>
   <i name="EFERMI">      0.00000000</i>
  </separator>
  <separator name="writing" >
   <i type="int" name="NWRITE">     2</i>
   <i type="logical" name="LWAVE"> F  </i>
   <i type="logical" name="LDOWNSAMPLE"> F  </i>
   <i type="logical" name="LCHARG"> F  </i>
   <i type="logical" name="LPARD"> F  </i>
   <i type="logical" name="LVTOT"> F  </i>
   <i type="logical" name="LVHAR"> F  </i>
   <i type="logical" name="LELF"> F  </i>
   <i type="logical" name="LOPTICS"> F  </i>
   <v name="STM">      0.00000000      0.00000000      0.00000000      0.00000000      0.00000000      0.00000000      0.00000000</v>
  </separator>
  <separator name="performance" >
   <i type="int" name="NPAR">     1</i>
   <i type="int" name="NSIM">     4</i>
   <i type="int" name="NBLK">    -1</i>
   <i type="logical" name="LPLANE"> T  </i>
   <i type="logical" name="LSCALAPACK"> T  </i>
   <i type="logical" name="LSCAAWARE"> F  </i>
   <i type="logical" name="LSCALU"> F  </i>
   <i type="logical" name="LASYNC"> F  </i>
   <i type="logical" name="LORBITALREAL"> F  </i>
  </separator>
  <separator name="miscellaneous" >
   <i type="int" name="IDIOT">     3</i>
   <i type="int" name="PHON_NSTRUCT">    -1</i>
   <i type="logical" name="LMUSIC"> F  </i>
   <v name="POMASS">     12.01100000     18.99800000     28.08500000     39.09800000</v>
   <v name="DARWINR">      0.00000000      0.00000000      0.00000000      0.00000000</v>
   <v name="DARWINV">      1.00000000      1.00000000      1.00000000      1.00000000</v>
   <i type="logical" name="LCORR"> T  </i>
  </separator>
  <i type="logical" name="GGA_COMPAT"> T  </i>
  <i type="logical" name="LBERRY"> F  </i>
  <i type="int" name="ICORELEVEL">     0</i>
  <i type="logical" name="LDAU"> F  </i>
  <i type="int" name="I_CONSTRAINED_M">     0</i>
  <separator name="electronic exchange-correlation" >
   <i type="string" name="GGA">--</i>
   <i type="int" name="VOSKOWN">     0</i>
   <i type="logical" name="LHFCALC"> F  </i>
   <i type="string" name="PRECFOCK"></i>
   <i type="logical" name="LSYMGRAD"> F  </i>
   <i type="logical" name="LHFONE"> F  </i>
   <i type="logical" name="LRHFCALC"> F  </i>
   <i type="logical" name="LTHOMAS"> F  </i>
   <i type="logical" name="LMODELHF"> F  </i>
   <i type="logical" name="LFOCKACE"> F  </i>
   <i name="ENCUT4O">     -1.00000000</i>
   <i type="int" name="EXXOEP">     0</i>
   <i type="int" name="FOURORBIT">     0</i>
   <i name="AEXX">      0.00000000</i>
   <i name="HFALPHA">      0.00000000</i>
   <i name="MCALPHA">      0.00000000</i>
   <i name="ALDAX">      1.00000000</i>
   <i name="AGGAX">      1.00000000</i>
   <i name="ALDAC">      1.00000000</i>
   <i name="AGGAC">      1.00000000</i>
   <i type="int" name="NKREDX">     1</i>
   <i type="int" name="NKREDY">     1</i>
   <i type="int" name="NKREDZ">     1</i>
   <i type="logical" name="SHIFTRED"> F  </i>
   <i type="logical" name="ODDONLY"> F  </i>
   <i type="logical" name="EVENONLY"> F  </i>
   <i type="int" name="LMAXFOCK">     0</i>
   <i type="int" name="NMAXFOCKAE">     0</i>
   <i type="logical" name="LFOCKAEDFT"> F  </i>
   <i name="HFSCREEN">      0.00000000</i>
   <i name="HFSCREENC">      0.00000000</i>
   <i type="int" name="NBANDSGWLOW">     0</i>
  </separator>
  <separator name="vdW DFT" >
   <i type="logical" name="LUSE_VDW"> F  </i>
   <i name="Zab_VDW">     -0.84910000</i>
   <i name="PARAM1">      0.12340000</i>
   <i name="PARAM2">      1.00000000</i>
   <i name="PARAM3">      0.00000000</i>
  </separator>
  <separator name="model GW" >
   <i type="int" name="MODEL_GW">     0</i>
   <i name="MODEL_EPS0">     11.10734508</i>
   <i name="MODEL_ALPHA">      1.00000000</i>
  </separator>
  <separator name="linear response parameters" >
   <i type="logical" name="LEPSILON"> F  </i>
   <i type="logical" name="LRPA"> F  </i>
   <i type="logical" name="LNABLA"> F  </i>
   <i type="logical" name="LVEL"> F  </i>
   <i name="CSHIFT">      0.10000000</i>
   <i name="OMEGAMAX">     -1.00000000</i>
   <i name="DEG_THRESHOLD">      0.00200000</i>
   <i name="RTIME">     -0.10000000</i>
   <i name="WPLASMAI">      0.00000000</i>
   <v name="DFIELD">      0.00000000      0.00000000      0.00000000</v>
   <v name="WPLASMA">      0.00000000      0.00000000      0.00000000      0.00000000      0.00000000      0.00000000      0.00000000      0.00000000      0.00000000</v>
  </separator>
  <separator name="orbital magnetization" >
   <i type="logical" name="NUCIND"> F  </i>
   <v name="MAGPOS">      0.00000000      0.00000000      0.00000000</v>
   <i type="logical" name="LNICSALL"> T  </i>
   <i type="logical" name="ORBITALMAG"> F  </i>
   <i type="logical" name="LMAGBLOCH"> F  </i>
   <i type="logical" name="LCHIMAG"> F  </i>
   <i type="logical" name="LGAUGE"> T  </i>
   <i type="int" name="MAGATOM">     0</i>
   <v name="MAGDIPOL">      0.00000000      0.00000000      0.00000000</v>
   <v name="AVECCONST">      0.00000000      0.00000000      0.00000000</v>
  </separator>
  <separator name="response functions" >
   <i type="logical" name="LFINITE_TEMPERATURE"> F  </i>
   <i type="logical" name="LADDER"> F  </i>
   <i type="logical" name="LRPAFORCE"> F  </i>
   <i type="logical" name="LFXC"> F  </i>
   <i type="logical" name="LHARTREE"> T  </i>
   <i type="int" name="IBSE">     0</i>
   <v type="int" name="KPOINT">    -1     0     0     0</v>
   <i type="logical" name="LTCTC"> F  </i>
   <i type="logical" name="LTCTE"> F  </i>
   <i type="logical" name="LTETE"> F  </i>
   <i type="logical" name="LTRIPLET"> F  </i>
   <i type="logical" name="LFXCEPS"> F  </i>
   <i type="logical" name="LFXHEG"> F  </i>
   <i type="int" name="NATURALO">     2</i>
   <i type="logical" name="LHOLEGF"> F  </i>
   <i type="logical" name="L2ORDER"> F  </i>
   <i type="logical" name="LDMP1"> F  </i>
   <i type="logical" name="LMP2LT"> F  </i>
   <i type="logical" name="LSMP2LT"> F  </i>
   <i type="logical" name="LGWLF"> F  </i>
   <i name="ENCUTGW">     -2.00000000</i>
   <i name="ENCUTGWSOFT">     -2.00000000</i>
   <i name="ENCUTLF">     -1.00000000</i>
   <i type="logical" name="LESF_SPLINES"> F  </i>
   <i type="int" name="LMAXMP2">    -1</i>
   <i name="SCISSOR">      0.00000000</i>
   <i type="int" name="NOMEGA">     0</i>
   <i type="int" name="NOMEGAR">     0</i>
   <i type="int" name="NBANDSGW">    -1</i>
   <i type="int" name="NBANDSO">    -1</i>
   <i type="int" name="NBANDSV">    -1</i>
   <i type="int" name="NELMGW">     1</i>
   <i type="int" name="NELMHF">     1</i>
   <i type="int" name="DIM">     3</i>
   <i type="int" name="IESPILON">     4</i>
   <i type="int" name="ANTIRES">     0</i>
   <i name="OMEGAMAX">    -30.00000000</i>
   <i name="OMEGAMIN">    -30.00000000</i>
   <i name="OMEGATL">   -200.00000000</i>
   <i type="int" name="OMEGAGRID">     0</i>
   <i name="CSHIFT">     -0.10000000</i>
   <i type="logical" name="LSELFENERGY"> F  </i>
   <i type="logical" name="LSPECTRAL"> F  </i>
   <i type="logical" name="LSPECTRALGW"> F  </i>
   <i type="logical" name="LSINGLES"> F  </i>
   <i type="logical" name="LFERMIGW"> F  </i>
   <i type="logical" name="ODDONLYGW"> F  </i>
   <i type="logical" name="EVENONLYGW"> F  </i>
   <i type="int" name="NKREDLFX">     1</i>
   <i type="int" name="NKREDLFY">     1</i>
   <i type="int" name="NKREDLFZ">     1</i>
   <i type="int" name="MAXMEM">  2800</i>
   <i type="int" name="TELESCOPE">     0</i>
   <i type="int" name="NTAUPAR">    -1</i>
   <i type="int" name="NOMEGAPAR">    -1</i>
   <i name="DAMP_NEWTON">      0.80000001</i>
   <i name="LAMBDA">      1.00000000</i>
  </separator>
  <separator name="External order field" >
   <i name="OFIELD_KAPPA">      0.00000000</i>
   <v name="OFIELD_K">      0.00000000      0.00000000      0.00000000</v>
   <i name="OFIELD_Q6_NEAR">      0.00000000</i>
   <i name="OFIELD_Q6_FAR">      0.00000000</i>
   <i name="OFIELD_A">      0.00000000</i>
  </separator>
  <separator name="optional k-points parameters" >
   <i type="int" name="KPOINTS_OPT_MODE">     1</i>
   <i type="logical" name="LKPOINTS_OPT"> F  </i>
  </separator>
  <separator name="solvation model" >
   <i type="logical" name="LSOL"> F  </i>
  </separator>
 </parameters>
 <atominfo>
  <atoms>      98 </atoms>
  <types>       4 </types>
  <array name="atoms" >
   <dimension dim="1">ion</dimension>
   <field type="string">element</field>
   <field type="int">atomtype</field>
   <set>
    <rc><c>C </c><c>   1</c></rc>
    <rc><c>C </c><c>   1</c></rc>
    <rc><c>C </c><c>   1</c></rc>
    <rc><c>C </c><c>   1</c></rc>
    <rc><c>C </c><c>   1</c></rc>
    <rc><c>C </c><c>   1</c></rc>
    <rc><c>C </c><c>   1</c></rc>
    <rc><c>C </c><c>   1</c></rc>
    <rc><c>C </c><c>   1</c></rc>
    <rc><c>C </c><c>   1</c></rc>
    <rc><c>C </c><c>   1</c></rc>
    <rc><c>C </c><c>   1</c></rc>
    <rc><c>C </c><c>   1</c></rc>
    <rc><c>C </c><c>   1</c></rc>
    <rc><c>C </c><c>   1</c></rc>
    <rc><c>C </c><c>   1</c></rc>
    <rc><c>C </c><c>   1</c></rc>
    <rc><c>C </c><c>   1</c></rc>
    <rc><c>C </c><c>   1</c></rc>
    <rc><c>C </c><c>   1</c></rc>
    <rc><c>C </c><c>   1</c></rc>
    <rc><c>C </c><c>   1</c></rc>
    <rc><c>C </c><c>   1</c></rc>
    <rc><c>C </c><c>   1</c></rc>
    <rc><c>C </c><c>   1</c></rc>
    <rc><c>C </c><c>   1</c></rc>
    <rc><c>C </c><c>   1</c></rc>
    <rc><c>C </c><c>   1</c></rc>
    <rc><c>C </c><c>   1</c></rc>
    <rc><c>C </c><c>   1</c></rc>
    <rc><c>C </c><c>   1</c></rc>
    <rc><c>C </c><c>   1</c></rc>
    <rc><c>C </c><c>   1</c></rc>
    <rc><c>C </c><c>   1</c></rc>
    <rc><c>C </c><c>   1</c></rc>
    <rc><c>C </c><c>   1</c></rc>
    <rc><c>C </c><c>   1</c></rc>
    <rc><c>C </c><c>   1</c></rc>
    <rc><c>C </c><c>   1</c></rc>
    <rc><c>C </c><c>   1</c></rc>
    <rc><c>C </c><c>   1</c></rc>
    <rc><c>C </c><c>   1</c></rc>
    <rc><c>C </c><c>   1</c></rc>
    <rc><c>C </c><c>   1</c></rc>
    <rc><c>C </c><c>   1</c></rc>
    <rc><c>C </c><c>   1</c></rc>
    <rc><c>C </c><c>   1</c></rc>
    <rc><c>C </c><c>   1</c></rc>
    <rc><c>F </c><c>   2</c></rc>
    <rc><c>Si</c><c>   3</c></rc>
    <rc><c>Si</c><c>   3</c></rc>
    <rc><c>Si</c><c>   3</c></rc>
    <rc><c>Si</c><c>   3</c></rc>
    <rc><c>Si</c><c>   3</c></rc>
    <rc><c>Si</c><c>   3</c></rc>
    <rc><c>Si</c><c>   3</c></rc>
    <rc><c>Si</c><c>   3</c></rc>
    <rc><c>Si</c><c>   3</c></rc>
    <rc><c>Si</c><c>   3</c></rc>
    <rc><c>Si</c><c>   3</c></rc>
    <rc><c>Si</c><c>   3</c></rc>
    <rc><c>Si</c><c>   3</c></rc>
    <rc><c>Si</c><c>   3</c></rc>
    <rc><c>Si</c><c>   3</c></rc>
    <rc><c>Si</c><c>   3</c></rc>
    <rc><c>Si</c><c>   3</c></rc>
    <rc><c>Si</c><c>   3</c></rc>
    <rc><c>Si</c><c>   3</c></rc>
    <rc><c>Si</c><c>   3</c></rc>
    <rc><c>Si</c><c>   3</c></rc>
    <rc><c>Si</c><c>   3</c></rc>
    <rc><c>Si</c><c>   3</c></rc>
    <rc><c>Si</c><c>   3</c></rc>
    <rc><c>Si</c><c>   3</c></rc>
    <rc><c>Si</c><c>   3</c></rc>
    <rc><c>Si</c><c>   3</c></rc>
    <rc><c>Si</c><c>   3</c></rc>
    <rc><c>Si</c><c>   3</c></rc>
    <rc><c>Si</c><c>   3</c></rc>
    <rc><c>Si</c><c>   3</c></rc>
    <rc><c>Si</c><c>   3</c></rc>
    <rc><c>Si</c><c>   3</c></rc>
    <rc><c>Si</c><c>   3</c></rc>
    <rc><c>Si</c><c>   3</c></rc>
    <rc><c>Si</c><c>   3</c></rc>
    <rc><c>Si</c><c>   3</c></rc>
    <rc><c>Si</c><c>   3</c></rc>
    <rc><c>Si</c><c>   3</c></rc>
    <rc><c>Si</c><c>   3</c></rc>
    <rc><c>Si</c><c>   3</c></rc>
    <rc><c>Si</c><c>   3</c></rc>
    <rc><c>Si</c><c>   3</c></rc>
    <rc><c>Si</c><c>   3</c></rc>
    <rc><c>Si</c><c>   3</c></rc>
    <rc><c>Si</c><c>   3</c></rc>
    <rc><c>Si</c><c>   3</c></rc>
    <rc><c>Si</c><c>   3</c></rc>
    <rc><c>K </c><c>   4</c></rc>
   </set>
  </array>
  <array name="atomtypes" >
   <dimension dim="1">type</dimension>
   <field type="int">atomspertype</field>
   <field type="string">element</field>
   <field>mass</field>
   <field>valence</field>
   <field type="string">pseudopotential</field>
   <set>
    <rc><c>  48</c><c>C </c><c>     12.01100000</c><c>      4.00000000</c><c> PAW_PBE C 08Apr2002                    </c></rc>
    <rc><c>   1</c><c>F </c><c>     18.99800000</c><c>      7.00000000</c><c> PAW_PBE F 08Apr2002                    </c></rc>
    <rc><c>  48</c><c>Si</c><c>     28.08500000</c><c>      4.00000000</c><c> PAW_PBE Si 05Jan2001                   </c></rc>
    <rc><c>   1</c><c>K </c><c>     39.09800000</c><c>      9.00000000</c><c> PAW_PBE K_sv 06Sep2000                 </c></rc>
   </set>
  </array>
 </atominfo>
 <structure name="initialpos" >
  <crystal>
   <varray name="basis" >
    <v>       9.28426200       0.00000000       0.00000000 </v>
    <v>       0.00000000      10.72054200       0.00000000 </v>
    <v>       0.00000000       0.00000000      18.22724200 </v>
   </varray>
   <i name="volume">   1814.19969640 </i>
   <varray name="rec_basis" >
    <v>       0.10770915       0.00000000       0.00000000 </v>
    <v>       0.00000000       0.09327887       0.00000000 </v>
    <v>       0.00000000       0.00000000       0.05486294 </v>
   </varray>
  </crystal>
  <varray name="positions" >
   <v>       0.00000000       0.00000000       0.31213000 </v>
   <v>       0.16666700       0.25000000       0.31213000 </v>
   <v>       0.99968279       0.33319587       0.43834984 </v>
   <v>       0.16656598       0.08351945       0.43886598 </v>
   <v>       0.00000000       0.16666600       0.03482200 </v>
   <v>       0.16666700       0.41666600       0.03482200 </v>
   <v>       0.00000000       0.33333300       0.17351800 </v>
   <v>       0.16666700       0.08333300       0.17351800 </v>
   <v>       0.33333300       0.00000000       0.31213000 </v>
   <v>       0.50000000       0.25000000       0.31213000 </v>
   <v>       0.33338678       0.33366054       0.43974223 </v>
   <v>       0.50011010       0.08341478       0.43806962 </v>
   <v>       0.33333300       0.16666600       0.03482200 </v>
   <v>       0.50000000       0.41666600       0.03482200 </v>
   <v>       0.33333300       0.33333400       0.17351800 </v>
   <v>       0.50000000       0.08333300       0.17351800 </v>
   <v>       0.66666700       0.00000000       0.31213000 </v>
   <v>       0.83333300       0.25000000       0.31213000 </v>
   <v>       0.66637568       0.33376592       0.43935492 </v>
   <v>       0.83301494       0.08319251       0.43796845 </v>
   <v>       0.66666700       0.16666600       0.03482200 </v>
   <v>       0.83333300       0.41666600       0.03482200 </v>
   <v>       0.66666700       0.33333300       0.17351800 </v>
   <v>       0.83333300       0.08333300       0.17351800 </v>
   <v>       0.00000000       0.50000000       0.31213000 </v>
   <v>       0.16666700       0.75000000       0.31213000 </v>
   <v>       0.99995119       0.83333255       0.43919414 </v>
   <v>       0.16670218       0.58328063       0.44211007 </v>
   <v>       0.00000000       0.66666600       0.03482200 </v>
   <v>       0.16666700       0.91666600       0.03482200 </v>
   <v>       0.00000000       0.83333300       0.17351800 </v>
   <v>       0.16666700       0.58333300       0.17351800 </v>
   <v>       0.33333300       0.50000000       0.31213000 </v>
   <v>       0.50000000       0.75000000       0.31213000 </v>
   <v>       0.33327079       0.83298180       0.44227919 </v>
   <v>       0.49958892       0.58293251       0.44924816 </v>
   <v>       0.33333300       0.66666600       0.03482200 </v>
   <v>       0.50000000       0.91666600       0.03482200 </v>
   <v>       0.33333300       0.83333300       0.17351800 </v>
   <v>       0.50000000       0.58333300       0.17351800 </v>
   <v>       0.66666700       0.50000000       0.31213000 </v>
   <v>       0.83333300       0.75000000       0.31213000 </v>
   <v>       0.66636497       0.83315110       0.43908366 </v>
   <v>       0.83255852       0.58366863       0.43979589 </v>
   <v>       0.66666700       0.66666600       0.03482200 </v>
   <v>       0.83333300       0.91666600       0.03482200 </v>
   <v>       0.66666700       0.83333300       0.17351800 </v>
   <v>       0.83333300       0.58333300       0.17351800 </v>
   <v>       0.49870311       0.58034186       0.53077669 </v>
   <v>       0.00000000       0.00000000       0.00000000 </v>
   <v>       0.16666700       0.25000000       0.00000000 </v>
   <v>       0.00000000       0.00000000       0.41654900 </v>
   <v>       0.16666700       0.25000000       0.41654900 </v>
   <v>       0.00000000       0.16666600       0.13894900 </v>
   <v>       0.16666700       0.41666600       0.13894900 </v>
   <v>       0.00000000       0.33333300       0.27764900 </v>
   <v>       0.16666700       0.08333300       0.27764900 </v>
   <v>       0.33333300       0.00000000       0.00000000 </v>
   <v>       0.50000000       0.25000000       0.00000000 </v>
   <v>       0.33333300       0.00000000       0.41654900 </v>
   <v>       0.50000000       0.25000000       0.41654900 </v>
   <v>       0.33333300       0.16666600       0.13894900 </v>
   <v>       0.50000000       0.41666600       0.13894900 </v>
   <v>       0.33333300       0.33333400       0.27764900 </v>
   <v>       0.50000000       0.08333300       0.27764900 </v>
   <v>       0.66666700       0.00000000       0.00000000 </v>
   <v>       0.83333300       0.25000000       0.00000000 </v>
   <v>       0.66666700       0.00000000       0.41654900 </v>
   <v>       0.83333300       0.25000000       0.41654900 </v>
   <v>       0.66666700       0.16666600       0.13894900 </v>
   <v>       0.83333300       0.41666600       0.13894900 </v>
   <v>       0.66666700       0.33333300       0.27764900 </v>
   <v>       0.83333300       0.08333300       0.27764900 </v>
   <v>       0.00000000       0.50000000       0.00000000 </v>
   <v>       0.16666700       0.75000000       0.00000000 </v>
   <v>       0.00000000       0.50000000       0.41654900 </v>
   <v>       0.16666700       0.75000000       0.41654900 </v>
   <v>       0.00000000       0.66666600       0.13894900 </v>
   <v>       0.16666700       0.91666600       0.13894900 </v>
   <v>       0.00000000       0.83333300       0.27764900 </v>
   <v>       0.16666700       0.58333300       0.27764900 </v>
   <v>       0.33333300       0.50000000       0.00000000 </v>
   <v>       0.50000000       0.75000000       0.00000000 </v>
   <v>       0.33333300       0.50000000       0.41654900 </v>
   <v>       0.50000000       0.75000000       0.41654900 </v>
   <v>       0.33333300       0.66666600       0.13894900 </v>
   <v>       0.50000000       0.91666600       0.13894900 </v>
   <v>       0.33333300       0.83333300       0.27764900 </v>
   <v>       0.50000000       0.58333300       0.27764900 </v>
   <v>       0.66666700       0.50000000       0.00000000 </v>
   <v>       0.83333300       0.75000000       0.00000000 </v>
   <v>       0.66666700       0.50000000       0.41654900 </v>
   <v>       0.83333300       0.75000000       0.41654900 </v>
   <v>       0.66666700       0.66666600       0.13894900 </v>
   <v>       0.83333300       0.91666600       0.13894900 </v>
   <v>       0.66666700       0.83333300       0.27764900 </v>
   <v>       0.83333300       0.58333300       0.27764900 </v>
   <v>       0.24290829       0.63967860       0.58708232 </v>
  </varray>
  <varray name="selective"  type="logical" >
   <v type="logical" >  F  F  F </v>
   <v type="logical" >  F  F  F </v>
   <v type="logical" >  T  T  T </v>
   <v type="logical" >  T  T  T </v>
   <v type="logical" >  F  F  F </v>
   <v type="logical" >  F  F  F </v>
   <v type="logical" >  F  F  F </v>
   <v type="logical" >  F  F  F </v>
   <v type="logical" >  F  F  F </v>
   <v type="logical" >  F  F  F </v>
   <v type="logical" >  T  T  T </v>
   <v type="logical" >  T  T  T </v>
   <v type="logical" >  F  F  F </v>
   <v type="logical" >  F  F  F </v>
   <v type="logical" >  F  F  F </v>
   <v type="logical" >  F  F  F </v>
   <v type="logical" >  F  F  F </v>
   <v type="logical" >  F  F  F </v>
   <v type="logical" >  T  T  T </v>
   <v type="logical" >  T  T  T </v>
   <v type="logical" >  F  F  F </v>
   <v type="logical" >  F  F  F </v>
   <v type="logical" >  F  F  F </v>
   <v type="logical" >  F  F  F </v>
   <v type="logical" >  F  F  F </v>
   <v type="logical" >  F  F  F </v>
   <v type="logical" >  T  T  T </v>
   <v type="logical" >  T  T  T </v>
   <v type="logical" >  F  F  F </v>
   <v type="logical" >  F  F  F </v>
   <v type="logical" >  F  F  F </v>
   <v type="logical" >  F  F  F </v>
   <v type="logical" >  F  F  F </v>
   <v type="logical" >  F  F  F </v>
   <v type="logical" >  T  T  T </v>
   <v type="logical" >  T  T  T </v>
   <v type="logical" >  F  F  F </v>
   <v type="logical" >  F  F  F </v>
   <v type="logical" >  F  F  F </v>
   <v type="logical" >  F  F  F </v>
   <v type="logical" >  F  F  F </v>
   <v type="logical" >  F  F  F </v>
   <v type="logical" >  T  T  T </v>
   <v type="logical" >  T  T  T </v>
   <v type="logical" >  F  F  F </v>
   <v type="logical" >  F  F  F </v>
   <v type="logical" >  F  F  F </v>
   <v type="logical" >  F  F  F </v>
   <v type="logical" >  T  T  T </v>
   <v type="logical" >  F  F  F </v>
   <v type="logical" >  F  F  F </v>
   <v type="logical" >  F  F  F </v>
   <v type="logical" >  F  F  F </v>
   <v type="logical" >  F  F  F </v>
   <v type="logical" >  F  F  F </v>
   <v type="logical" >  F  F  F </v>
   <v type="logical" >  F  F  F </v>
   <v type="logical" >  F  F  F </v>
   <v type="logical" >  F  F  F </v>
   <v type="logical" >  F  F  F </v>
   <v type="logical" >  F  F  F </v>
   <v type="logical" >  F  F  F </v>
   <v type="logical" >  F  F  F </v>
   <v type="logical" >  F  F  F </v>
   <v type="logical" >  F  F  F </v>
   <v type="logical" >  F  F  F </v>
   <v type="logical" >  F  F  F </v>
   <v type="logical" >  F  F  F </v>
   <v type="logical" >  F  F  F </v>
   <v type="logical" >  F  F  F </v>
   <v type="logical" >  F  F  F </v>
   <v type="logical" >  F  F  F </v>
   <v type="logical" >  F  F  F </v>
   <v type="logical" >  F  F  F </v>
   <v type="logical" >  F  F  F </v>
   <v type="logical" >  F  F  F </v>
   <v type="logical" >  F  F  F </v>
   <v type="logical" >  F  F  F </v>
   <v type="logical" >  F  F  F </v>
   <v type="logical" >  F  F  F </v>
   <v type="logical" >  F  F  F </v>
   <v type="logical" >  F  F  F </v>
   <v type="logical" >  F  F  F </v>
   <v type="logical" >  F  F  F </v>
   <v type="logical" >  F  F  F </v>
   <v type="logical" >  F  F  F </v>
   <v type="logical" >  F  F  F </v>
   <v type="logical" >  F  F  F </v>
   <v type="logical" >  F  F  F </v>
   <v type="logical" >  F  F  F </v>
   <v type="logical" >  F  F  F </v>
   <v type="logical" >  F  F  F </v>
   <v type="logical" >  F  F  F </v>
   <v type="logical" >  F  F  F </v>
   <v type="logical" >  F  F  F </v>
   <v type="logical" >  F  F  F </v>
   <v type="logical" >  F  F  F </v>
   <v type="logical" >  T  T  T </v>
  </varray>
  <nose>
   <v>      -3.00000000       0.00000000       0.00010000       0.00010000 </v>
  </nose>
 </structure>
 <calculation>
  <scstep>
   <time name="dav">   46.97    6.74</time>
   <time name="total">   56.44    8.33</time>
   <energy>
    <i name="alphaZ">    340.57291683 </i>
    <i name="ewald">  27129.44712365 </i>
    <i name="hartreedc"> -40231.66684261 </i>
    <i name="XCdc">    303.95323797 </i>
    <i name="pawpsdc">   4337.97084573 </i>
    <i name="pawaedc">  -3548.78544197 </i>
    <i name="eentropy">     -0.09279292 </i>
    <i name="bandstr">    455.77075107 </i>
    <i name="atom">  13444.54662946 </i>
    <i name="e_fr_energy">   2231.71642722 </i>
    <i name="e_wo_entrp">   2231.80922014 </i>
    <i name="e_0_energy">   2231.76282368 </i>
   </energy>
  </scstep>
  <scstep>
   <time name="dav">   57.17    8.19</time>
   <time name="total">   57.18    8.20</time>
   <energy>
    <i name="e_fr_energy">   -468.53341803 </i>
    <i name="e_wo_entrp">   -468.46042664 </i>
    <i name="e_0_energy">   -468.49692233 </i>
   </energy>
  </scstep>
  <scstep>
   <time name="dav">   54.59    7.90</time>
   <time name="total">   54.63    7.91</time>
   <energy>
    <i name="e_fr_energy">   -780.97369774 </i>
    <i name="e_wo_entrp">   -780.87610225 </i>
    <i name="e_0_energy">   -780.92490000 </i>
   </energy>
  </scstep>
  <scstep>
   <time name="dav">   61.49    8.83</time>
   <time name="total">   61.50    8.83</time>
   <energy>
    <i name="e_fr_energy">   -798.00689700 </i>
    <i name="e_wo_entrp">   -797.89695758 </i>
    <i name="e_0_energy">   -797.95192729 </i>
   </energy>
  </scstep>
  <scstep>
   <time name="dav">   60.55    8.80</time>
   <time name="total">   62.54    9.39</time>
   <energy>
    <i name="e_fr_energy">   -798.58479171 </i>
    <i name="e_wo_entrp">   -798.47485076 </i>
    <i name="e_0_energy">   -798.52982123 </i>
   </energy>
  </scstep>
  <scstep>
   <time name="diag">    3.44    0.82</time>
   <time name="diis">    6.93    3.14</time>
   <time name="orth">    0.12    0.06</time>
   <time name="total">   21.90    6.17</time>
   <energy>
    <i name="e_fr_energy">   -702.99344388 </i>
    <i name="e_wo_entrp">   -702.98603199 </i>
    <i name="e_0_energy">   -702.98973793 </i>
   </energy>
  </scstep>
  <scstep>
   <time name="diag">    3.44    0.80</time>
   <time name="diis">    7.00    3.11</time>
   <time name="orth">    0.12    0.06</time>
   <time name="total">   21.87    6.12</time>
   <energy>
    <i name="e_fr_energy">   -694.62888833 </i>
    <i name="e_wo_entrp">   -694.50797880 </i>
    <i name="e_0_energy">   -694.56843357 </i>
   </energy>
  </scstep>
  <scstep>
   <time name="diag">    3.47    0.81</time>
   <time name="diis">    7.51    3.38</time>
   <time name="orth">    0.12    0.06</time>
   <time name="total">   22.53    6.42</time>
   <energy>
    <i name="e_fr_energy">   -688.09501648 </i>
    <i name="e_wo_entrp">   -687.83419057 </i>
    <i name="e_0_energy">   -687.96460353 </i>
   </energy>
  </scstep>
  <scstep>
   <time name="diag">    3.45    0.81</time>
   <time name="diis">    7.46    3.35</time>
   <time name="orth">    0.12    0.06</time>
   <time name="total">   22.47    6.38</time>
   <energy>
    <i name="e_fr_energy">   -688.17210463 </i>
    <i name="e_wo_entrp">   -687.90860081 </i>
    <i name="e_0_energy">   -688.04035272 </i>
   </energy>
  </scstep>
  <scstep>
   <time name="diag">    3.44    0.81</time>
   <time name="diis">    7.23    3.22</time>
   <time name="orth">    0.12    0.06</time>
   <time name="total">   22.13    6.23</time>
   <energy>
    <i name="e_fr_energy">   -689.22323669 </i>
    <i name="e_wo_entrp">   -689.09003670 </i>
    <i name="e_0_energy">   -689.15663670 </i>
   </energy>
  </scstep>
  <scstep>
   <time name="diag">    3.45    0.80</time>
   <time name="diis">    7.92    3.56</time>
   <time name="orth">    0.12    0.06</time>
   <time name="total">   22.86    6.59</time>
   <energy>
    <i name="e_fr_energy">   -685.83976983 </i>
    <i name="e_wo_entrp">   -685.49595078 </i>
    <i name="e_0_energy">   -685.66786031 </i>
   </energy>
  </scstep>
  <scstep>
   <time name="diag">    3.48    0.81</time>
   <time name="diis">    9.83    4.53</time>
   <time name="orth">    0.12    0.06</time>
   <time name="total">   24.91    7.57</time>
   <energy>
    <i name="e_fr_energy">   -685.67010113 </i>
    <i name="e_wo_entrp">   -685.33880460 </i>
    <i name="e_0_energy">   -685.50445286 </i>
   </energy>
  </scstep>
  <scstep>
   <time name="diag">    3.38    0.81</time>
   <time name="diis">    7.94    3.60</time>
   <time name="orth">    0.12    0.06</time>
   <time name="total">   22.93    6.64</time>
   <energy>
    <i name="e_fr_energy">   -685.19247861 </i>
    <i name="e_wo_entrp">   -684.81824760 </i>
    <i name="e_0_energy">   -685.00536311 </i>
   </energy>
  </scstep>
  <scstep>
   <time name="diag">    3.42    0.81</time>
   <time name="diis">    8.36    3.81</time>
   <time name="orth">    0.12    0.06</time>
   <time name="total">   23.46    6.87</time>
   <energy>
    <i name="e_fr_energy">   -685.14519926 </i>
    <i name="e_wo_entrp">   -684.76923915 </i>
    <i name="e_0_energy">   -684.95721921 </i>
   </energy>
  </scstep>
  <scstep>
   <time name="diag">    3.46    0.81</time>
   <time name="diis">    8.37    3.81</time>
   <time name="orth">    0.12    0.06</time>
   <time name="total">   23.42    6.85</time>
   <energy>
    <i name="e_fr_energy">   -685.06539943 </i>
    <i name="e_wo_entrp">   -684.68616021 </i>
    <i name="e_0_energy">   -684.87577982 </i>
   </energy>
  </scstep>
  <scstep>
   <time name="diag">    3.40    0.81</time>
   <time name="diis">    8.86    4.06</time>
   <time name="orth">    0.12    0.06</time>
   <time name="total">   23.98    7.11</time>
   <energy>
    <i name="e_fr_energy">   -684.97696664 </i>
    <i name="e_wo_entrp">   -684.59838421 </i>
    <i name="e_0_energy">   -684.78767542 </i>
   </energy>
  </scstep>
  <scstep>
   <time name="diag">    3.46    0.81</time>
   <time name="diis">    9.07    4.17</time>
   <time name="orth">    0.12    0.06</time>
   <time name="total">   24.22    7.22</time>
   <energy>
    <i name="e_fr_energy">   -684.91106004 </i>
    <i name="e_wo_entrp">   -684.52895802 </i>
    <i name="e_0_energy">   -684.72000903 </i>
   </energy>
  </scstep>
  <scstep>
   <time name="diag">    3.45    0.81</time>
   <time name="diis">   10.39    4.83</time>
   <time name="orth">    0.12    0.06</time>
   <time name="total">   25.58    7.89</time>
   <energy>
    <i name="e_fr_energy">   -684.89036864 </i>
    <i name="e_wo_entrp">   -684.50873975 </i>
    <i name="e_0_energy">   -684.69955419 </i>
   </energy>
  </scstep>
  <scstep>
   <time name="diag">    3.44    0.81</time>
   <time name="diis">    9.45    4.35</time>
   <time name="orth">    0.12    0.06</time>
   <time name="total">   24.64    7.41</time>
   <energy>
    <i name="e_fr_energy">   -684.86528496 </i>
    <i name="e_wo_entrp">   -684.48167753 </i>
    <i name="e_0_energy">   -684.67348124 </i>
   </energy>
  </scstep>
  <scstep>
   <time name="diag">    3.49    0.81</time>
   <time name="diis">    9.26    4.25</time>
   <time name="orth">    0.12    0.06</time>
   <time name="total">   24.51    7.32</time>
   <energy>
    <i name="e_fr_energy">   -684.83274145 </i>
    <i name="e_wo_entrp">   -684.45027303 </i>
    <i name="e_0_energy">   -684.64150724 </i>
   </energy>
  </scstep>
  <scstep>
   <time name="diag">    3.45    0.81</time>
   <time name="diis">    9.10    4.16</time>
   <time name="orth">    0.12    0.06</time>
   <time name="total">   24.36    7.26</time>
   <energy>
    <i name="e_fr_energy">   -684.82345357 </i>
    <i name="e_wo_entrp">   -684.43955759 </i>
    <i name="e_0_energy">   -684.63150558 </i>
   </energy>
  </scstep>
  <scstep>
   <time name="diag">    3.46    0.81</time>
   <time name="diis">   10.77    5.03</time>
   <time name="orth">    0.12    0.06</time>
   <time name="total">   26.46    8.18</time>
   <energy>
    <i name="e_fr_energy">   -684.82633655 </i>
    <i name="e_wo_entrp">   -684.43856791 </i>
    <i name="e_0_energy">   -684.63245223 </i>
   </energy>
  </scstep>
  <scstep>
   <time name="diag">    3.45    0.81</time>
   <time name="diis">    8.96    4.11</time>
   <time name="orth">    0.12    0.06</time>
   <time name="total">   24.35    7.20</time>
   <energy>
    <i name="e_fr_energy">   -684.82766441 </i>
    <i name="e_wo_entrp">   -684.43969459 </i>
    <i name="e_0_energy">   -684.63367950 </i>
   </energy>
  </scstep>
  <scstep>
   <time name="diag">    3.45    0.82</time>
   <time name="diis">    9.89    4.58</time>
   <time name="orth">    0.12    0.06</time>
   <time name="total">   25.24    7.67</time>
   <energy>
    <i name="e_fr_energy">   -684.83192021 </i>
    <i name="e_wo_entrp">   -684.44476777 </i>
    <i name="e_0_energy">   -684.63834399 </i>
   </energy>
  </scstep>
  <scstep>
   <time name="diag">    3.44    0.81</time>
   <time name="diis">    9.57    4.42</time>
   <time name="orth">    0.12    0.06</time>
   <time name="total">   25.03    7.52</time>
   <energy>
    <i name="e_fr_energy">   -684.83560509 </i>
    <i name="e_wo_entrp">   -684.44919055 </i>
    <i name="e_0_energy">   -684.64239782 </i>
   </energy>
  </scstep>
  <scstep>
   <time name="diag">    3.45    0.81</time>
   <time name="diis">    9.59    4.44</time>
   <time name="orth">    0.12    0.06</time>
   <time name="total">   25.05    7.54</time>
   <energy>
    <i name="e_fr_energy">   -684.84065536 </i>
    <i name="e_wo_entrp">   -684.45396964 </i>
    <i name="e_0_energy">   -684.64731250 </i>
   </energy>
  </scstep>
  <scstep>
   <time name="diag">    3.43    0.81</time>
   <time name="diis">    9.90    4.57</time>
   <time name="orth">    0.12    0.06</time>
   <time name="total">   25.34    7.66</time>
   <energy>
    <i name="e_fr_energy">   -684.84283700 </i>
    <i name="e_wo_entrp">   -684.45591179 </i>
    <i name="e_0_energy">   -684.64937439 </i>
   </energy>
  </scstep>
  <scstep>
   <time name="diag">    3.46    0.81</time>
   <time name="diis">   10.48    4.88</time>
   <time name="orth">    0.12    0.06</time>
   <time name="total">   25.96    7.97</time>
   <energy>
    <i name="e_fr_energy">   -684.84296197 </i>
    <i name="e_wo_entrp">   -684.45601066 </i>
    <i name="e_0_energy">   -684.64948632 </i>
   </energy>
  </scstep>
  <scstep>
   <time name="diag">    3.50    0.81</time>
   <time name="diis">   10.12    4.68</time>
   <time name="orth">    0.12    0.06</time>
   <time name="total">   25.69    7.80</time>
   <energy>
    <i name="e_fr_energy">   -684.84392283 </i>
    <i name="e_wo_entrp">   -684.45711438 </i>
    <i name="e_0_energy">   -684.65051860 </i>
   </energy>
  </scstep>
  <scstep>
   <time name="diag">    3.49    0.81</time>
   <time name="diis">   10.33    4.79</time>
   <time name="orth">    0.12    0.06</time>
   <time name="total">   25.91    7.90</time>
   <energy>
    <i name="e_fr_energy">   -684.84463950 </i>
    <i name="e_wo_entrp">   -684.45773070 </i>
    <i name="e_0_energy">   -684.65118510 </i>
   </energy>
  </scstep>
  <scstep>
   <time name="diag">    3.52    0.82</time>
   <time name="diis">   10.10    4.68</time>
   <time name="orth">    0.12    0.06</time>
   <time name="total">   25.94    7.84</time>
   <energy>
    <i name="e_fr_energy">   -684.84515399 </i>
    <i name="e_wo_entrp">   -684.45809976 </i>
    <i name="e_0_energy">   -684.65162688 </i>
   </energy>
  </scstep>
  <scstep>
   <time name="diag">    3.30    0.81</time>
   <time name="diis">   10.63    4.97</time>
   <time name="orth">    0.12    0.06</time>
   <time name="total">   26.38    8.14</time>
   <energy>
    <i name="e_fr_energy">   -684.84533084 </i>
    <i name="e_wo_entrp">   -684.45837591 </i>
    <i name="e_0_energy">   -684.65185338 </i>
   </energy>
  </scstep>
  <scstep>
   <time name="diag">    3.41    0.81</time>
   <time name="diis">   10.61    4.95</time>
   <time name="orth">    0.12    0.06</time>
   <time name="total">   26.31    8.09</time>
   <energy>
    <i name="e_fr_energy">   -684.84546518 </i>
    <i name="e_wo_entrp">   -684.45859689 </i>
    <i name="e_0_energy">   -684.65203103 </i>
   </energy>
  </scstep>
  <scstep>
   <time name="diag">    3.45    0.81</time>
   <time name="diis">   10.06    4.64</time>
   <time name="orth">    0.12    0.06</time>
   <time name="total">   25.81    7.79</time>
   <energy>
    <i name="e_fr_energy">   -684.84568261 </i>
    <i name="e_wo_entrp">   -684.45879818 </i>
    <i name="e_0_energy">   -684.65224040 </i>
   </energy>
  </scstep>
  <scstep>
   <time name="diag">    3.45    0.81</time>
   <time name="diis">    8.80    4.05</time>
   <time name="orth">    0.12    0.06</time>
   <time name="total">   24.62    7.20</time>
   <energy>
    <i name="e_fr_energy">   -684.84578349 </i>
    <i name="e_wo_entrp">   -684.45889803 </i>
    <i name="e_0_energy">   -684.65234076 </i>
   </energy>
  </scstep>
  <scstep>
   <time name="diag">    3.50    0.81</time>
   <time name="diis">    9.13    4.19</time>
   <time name="orth">    0.12    0.06</time>
   <time name="total">   25.01    7.36</time>
   <energy>
    <i name="e_fr_energy">   -684.84590674 </i>
    <i name="e_wo_entrp">   -684.45900279 </i>
    <i name="e_0_energy">   -684.65245477 </i>
   </energy>
  </scstep>
  <scstep>
   <time name="diag">    3.48    0.81</time>
   <time name="diis">    7.21    3.24</time>
   <time name="orth">    0.12    0.06</time>
   <time name="total">   23.22    6.42</time>
   <energy>
    <i name="e_fr_energy">   -684.84594390 </i>
    <i name="e_wo_entrp">   -684.45904227 </i>
    <i name="e_0_energy">   -684.65249308 </i>
   </energy>
  </scstep>
  <scstep>
   <time name="diag">    3.45    0.81</time>
   <time name="diis">    6.60    2.90</time>
   <time name="orth">    0.12    0.06</time>
   <time name="total">   22.67    6.08</time>
   <energy>
    <i name="e_fr_energy">   -684.84596329 </i>
    <i name="e_wo_entrp">   -684.45904575 </i>
    <i name="e_0_energy">   -684.65250452 </i>
   </energy>
  </scstep>
  <scstep>
   <time name="diag">    3.51    0.81</time>
   <time name="diis">    6.44    2.85</time>
   <time name="orth">    0.12    0.06</time>
   <time name="total">   22.47    6.04</time>
   <energy>
    <i name="e_fr_energy">   -684.84597435 </i>
    <i name="e_wo_entrp">   -684.45906429 </i>
    <i name="e_0_energy">   -684.65251932 </i>
   </energy>
  </scstep>
  <scstep>
   <time name="diag">    3.51    0.82</time>
   <time name="diis">    5.80    2.54</time>
   <time name="orth">    0.12    0.06</time>
   <time name="total">   22.27    5.80</time>
   <energy>
    <i name="e_fr_energy">   -684.84597750 </i>
    <i name="e_wo_entrp">   -684.45906769 </i>
    <i name="e_0_energy">   -684.65252259 </i>
   </energy>
  </scstep>
  <scstep>
   <time name="diag">    3.48    0.81</time>
   <time name="diis">    5.67    2.47</time>
   <time name="orth">    0.12    0.06</time>
   <time name="total">   21.84    5.68</time>
   <energy>
    <i name="e_fr_energy">   -684.84597973 </i>
    <i name="e_wo_entrp">   -684.45907369 </i>
    <i name="e_0_energy">   -684.65252671 </i>
   </energy>
  </scstep>
  <scstep>
   <time name="diag">    3.49    0.81</time>
   <time name="diis">    5.34    2.30</time>
   <time name="orth">    0.12    0.06</time>
   <time name="total">   21.58    5.52</time>
   <energy>
    <i name="e_fr_energy">   -684.84598095 </i>
    <i name="e_wo_entrp">   -684.45907777 </i>
    <i name="e_0_energy">   -684.65252936 </i>
   </energy>
  </scstep>
  <scstep>
   <time name="diag">    3.33    0.83</time>
   <time name="diis">    5.49    2.42</time>
   <time name="orth">    0.12    0.06</time>
   <time name="total">   21.50    5.70</time>
   <energy>
    <i name="e_fr_energy">   -684.84598251 </i>
    <i name="e_wo_entrp">   -684.45907637 </i>
    <i name="e_0_energy">   -684.65252944 </i>
   </energy>
  </scstep>
  <scstep>
   <time name="diag">    3.50    0.82</time>
   <time name="diis">    4.86    2.04</time>
   <time name="orth">    0.12    0.06</time>
   <time name="total">   17.96    4.51</time>
   <energy>
    <i name="alphaZ">    340.57291683 </i>
    <i name="ewald">  27129.44712365 </i>
    <i name="hartreedc"> -41242.09567540 </i>
    <i name="XCdc">    354.67144129 </i>
    <i name="pawpsdc">   5711.15800132 </i>
    <i name="pawaedc">  -4933.21299976 </i>
    <i name="eentropy">     -0.38690696 </i>
    <i name="bandstr">  -1489.54651320 </i>
    <i name="atom">  13444.54662946 </i>
    <i name="e_fr_energy">   -684.84598277 </i>
    <i name="e_wo_entrp">   -684.45907582 </i>
    <i name="e_0_energy">   -684.65252930 </i>
   </energy>
  </scstep>
  <structure>
   <crystal>
    <varray name="basis" >
     <v>       9.28426200       0.00000000       0.00000000 </v>
     <v>       0.00000000      10.72054200       0.00000000 </v>
     <v>       0.00000000       0.00000000      18.22724200 </v>
    </varray>
    <i name="volume">   1814.19969640 </i>
    <varray name="rec_basis" >
     <v>       0.10770915       0.00000000       0.00000000 </v>
     <v>       0.00000000       0.09327887       0.00000000 </v>
     <v>       0.00000000       0.00000000       0.05486294 </v>
    </varray>
   </crystal>
   <varray name="positions" >
    <v>       0.00000000       0.00000000       0.31213000 </v>
    <v>       0.16666700       0.25000000       0.31213000 </v>
    <v>       0.99968279       0.33319587       0.43834984 </v>
    <v>       0.16656598       0.08351945       0.43886598 </v>
    <v>       0.00000000       0.16666600       0.03482200 </v>
    <v>       0.16666700       0.41666600       0.03482200 </v>
    <v>       0.00000000       0.33333300       0.17351800 </v>
    <v>       0.16666700       0.08333300       0.17351800 </v>
    <v>       0.33333300       0.00000000       0.31213000 </v>
    <v>       0.50000000       0.25000000       0.31213000 </v>
    <v>       0.33338678       0.33366054       0.43974223 </v>
    <v>       0.50011010       0.08341478       0.43806962 </v>
    <v>       0.33333300       0.16666600       0.03482200 </v>
    <v>       0.50000000       0.41666600       0.03482200 </v>
    <v>       0.33333300       0.33333400       0.17351800 </v>
    <v>       0.50000000       0.08333300       0.17351800 </v>
    <v>       0.66666700       0.00000000       0.31213000 </v>
    <v>       0.83333300       0.25000000       0.31213000 </v>
    <v>       0.66637568       0.33376592       0.43935492 </v>
    <v>       0.83301494       0.08319251       0.43796845 </v>
    <v>       0.66666700       0.16666600       0.03482200 </v>
    <v>       0.83333300       0.41666600       0.03482200 </v>
    <v>       0.66666700       0.33333300       0.17351800 </v>
    <v>       0.83333300       0.08333300       0.17351800 </v>
    <v>       0.00000000       0.50000000       0.31213000 </v>
    <v>       0.16666700       0.75000000       0.31213000 </v>
    <v>       0.99995119       0.83333255       0.43919414 </v>
    <v>       0.16670218       0.58328063       0.44211007 </v>
    <v>       0.00000000       0.66666600       0.03482200 </v>
    <v>       0.16666700       0.91666600       0.03482200 </v>
    <v>       0.00000000       0.83333300       0.17351800 </v>
    <v>       0.16666700       0.58333300       0.17351800 </v>
    <v>       0.33333300       0.50000000       0.31213000 </v>
    <v>       0.50000000       0.75000000       0.31213000 </v>
    <v>       0.33327079       0.83298180       0.44227919 </v>
    <v>       0.49958892       0.58293251       0.44924816 </v>
    <v>       0.33333300       0.66666600       0.03482200 </v>
    <v>       0.50000000       0.91666600       0.03482200 </v>
    <v>       0.33333300       0.83333300       0.17351800 </v>
    <v>       0.50000000       0.58333300       0.17351800 </v>
    <v>       0.66666700       0.50000000       0.31213000 </v>
    <v>       0.83333300       0.75000000       0.31213000 </v>
    <v>       0.66636497       0.83315110       0.43908366 </v>
    <v>       0.83255852       0.58366863       0.43979589 </v>
    <v>       0.66666700       0.66666600       0.03482200 </v>
    <v>       0.83333300       0.91666600       0.03482200 </v>
    <v>       0.66666700       0.83333300       0.17351800 </v>
    <v>       0.83333300       0.58333300       0.17351800 </v>
    <v>       0.49870311       0.58034186       0.53077669 </v>
    <v>       0.00000000       0.00000000       0.00000000 </v>
    <v>       0.16666700       0.25000000       0.00000000 </v>
    <v>       0.00000000       0.00000000       0.41654900 </v>
    <v>       0.16666700       0.25000000       0.41654900 </v>
    <v>       0.00000000       0.16666600       0.13894900 </v>
    <v>       0.16666700       0.41666600       0.13894900 </v>
    <v>       0.00000000       0.33333300       0.27764900 </v>
    <v>       0.16666700       0.08333300       0.27764900 </v>
    <v>       0.33333300       0.00000000       0.00000000 </v>
    <v>       0.50000000       0.25000000       0.00000000 </v>
    <v>       0.33333300       0.00000000       0.41654900 </v>
    <v>       0.50000000       0.25000000       0.41654900 </v>
    <v>       0.33333300       0.16666600       0.13894900 </v>
    <v>       0.50000000       0.41666600       0.13894900 </v>
    <v>       0.33333300       0.33333400       0.27764900 </v>
    <v>       0.50000000       0.08333300       0.27764900 </v>
    <v>       0.66666700       0.00000000       0.00000000 </v>
    <v>       0.83333300       0.25000000       0.00000000 </v>
    <v>       0.66666700       0.00000000       0.41654900 </v>
    <v>       0.83333300       0.25000000       0.41654900 </v>
    <v>       0.66666700       0.16666600       0.13894900 </v>
    <v>       0.83333300       0.41666600       0.13894900 </v>
    <v>       0.66666700       0.33333300       0.27764900 </v>
    <v>       0.83333300       0.08333300       0.27764900 </v>
    <v>       0.00000000       0.50000000       0.00000000 </v>
    <v>       0.16666700       0.75000000       0.00000000 </v>
    <v>       0.00000000       0.50000000       0.41654900 </v>
    <v>       0.16666700       0.75000000       0.41654900 </v>
    <v>       0.00000000       0.66666600       0.13894900 </v>
    <v>       0.16666700       0.91666600       0.13894900 </v>
    <v>       0.00000000       0.83333300       0.27764900 </v>
    <v>       0.16666700       0.58333300       0.27764900 </v>
    <v>       0.33333300       0.50000000       0.00000000 </v>
    <v>       0.50000000       0.75000000       0.00000000 </v>
    <v>       0.33333300       0.50000000       0.41654900 </v>
    <v>       0.50000000       0.75000000       0.41654900 </v>
    <v>       0.33333300       0.66666600       0.13894900 </v>
    <v>       0.50000000       0.91666600       0.13894900 </v>
    <v>       0.33333300       0.83333300       0.27764900 </v>
    <v>       0.50000000       0.58333300       0.27764900 </v>
    <v>       0.66666700       0.50000000       0.00000000 </v>
    <v>       0.83333300       0.75000000       0.00000000 </v>
    <v>       0.66666700       0.50000000       0.41654900 </v>
    <v>       0.83333300       0.75000000       0.41654900 </v>
    <v>       0.66666700       0.66666600       0.13894900 </v>
    <v>       0.83333300       0.91666600       0.13894900 </v>
    <v>       0.66666700       0.83333300       0.27764900 </v>
    <v>       0.83333300       0.58333300       0.27764900 </v>
    <v>       0.24290829       0.63967860       0.58708232 </v>
   </varray>
  </structure>
  <varray name="forces" >
   <v>      -0.00074586       0.02809673      -1.57481907 </v>
   <v>       0.00426326      -0.00006363      -1.57810760 </v>
   <v>       0.04765529       0.00631643       0.01015207 </v>
   <v>       0.00535406      -0.03868475      -0.05360763 </v>
   <v>      -0.00776213      -0.02560040      -1.00630686 </v>
   <v>       0.01613334      -0.00074536      -0.98124485 </v>
   <v>      -0.00715146      -0.03735216      -0.63449404 </v>
   <v>      -0.00972688       0.00643234      -0.60556203 </v>
   <v>       0.03316110       0.02656483      -1.54946700 </v>
   <v>       0.01238025       0.00659631      -1.56244179 </v>
   <v>       0.05069805      -0.02151741      -0.04215707 </v>
   <v>      -0.00143171       0.00076424       0.00571142 </v>
   <v>       0.00085780      -0.01823628      -0.98925914 </v>
   <v>       0.00134722      -0.02512303      -0.95564450 </v>
   <v>      -0.01812123      -0.03302906      -0.56781372 </v>
   <v>       0.01663040       0.01861642      -0.61663426 </v>
   <v>      -0.02792969      -0.01079530      -1.60416535 </v>
   <v>      -0.01485729       0.02644122      -1.59355383 </v>
   <v>       0.03087202      -0.05834117      -0.06962609 </v>
   <v>       0.06201616       0.03687821       0.08115044 </v>
   <v>       0.00527745      -0.01492118      -0.97989685 </v>
   <v>      -0.01819902       0.00555982      -0.96449377 </v>
   <v>       0.02628325      -0.00982465      -0.54646021 </v>
   <v>      -0.00436048      -0.00081065      -0.58951453 </v>
   <v>      -0.10190203      -0.08715465      -1.57834647 </v>
   <v>       0.00241746       0.05219297      -1.55649189 </v>
   <v>       0.00169834       0.01668804      -0.00155865 </v>
   <v>       0.06470840      -0.02836943       0.15303973 </v>
   <v>       0.00131441       0.01456781      -0.96500131 </v>
   <v>       0.00698107       0.01608580      -0.98940352 </v>
   <v>      -0.02623349       0.01991880      -0.62651266 </v>
   <v>      -0.02515659      -0.03011963      -0.59301902 </v>
   <v>       0.42679458       0.15585903      -1.07928388 </v>
   <v>       0.02677378      -0.42202038      -1.03599863 </v>
   <v>       0.04183573      -0.04048658      -0.05655606 </v>
   <v>       0.13071106      -0.00597640      -0.10573467 </v>
   <v>      -0.00599696       0.01013523      -0.96617235 </v>
   <v>       0.01499227      -0.02201344      -0.99090526 </v>
   <v>       0.02873385       0.03678269      -0.57612510 </v>
   <v>       0.02667399      -0.00002726      -0.60503145 </v>
   <v>      -0.34395790       0.20025140      -1.05950253 </v>
   <v>      -0.03739066       0.00155902      -1.56139026 </v>
   <v>       0.03552232      -0.03171997      -0.04482175 </v>
   <v>       0.07767130      -0.08256112      -0.08887732 </v>
   <v>       0.00774613       0.01689118      -0.98701031 </v>
   <v>      -0.01531595       0.00738904      -1.00696538 </v>
   <v>      -0.00494026       0.02934851      -0.55896575 </v>
   <v>      -0.00550774      -0.00704932      -0.57702125 </v>
   <v>      -0.05655524       0.09090457       0.02280572 </v>
   <v>       0.00537530      -0.02240267       0.68840359 </v>
   <v>      -0.01307775       0.02496147       0.68369598 </v>
   <v>       0.03302517      -0.09434237       0.96447922 </v>
   <v>       0.10679103       0.11964772       0.97458994 </v>
   <v>       0.00469428       0.00985808       0.55507149 </v>
   <v>      -0.01172488      -0.00079236       0.56220029 </v>
   <v>       0.00364224       0.07377603       0.93028621 </v>
   <v>       0.02518285      -0.01238168       0.94063185 </v>
   <v>       0.00499838       0.00038870       0.68658773 </v>
   <v>       0.00309145       0.03119040       0.72027203 </v>
   <v>      -0.04756876      -0.48117175       1.06493632 </v>
   <v>      -0.06031581       0.13052629       1.03044765 </v>
   <v>       0.00489207       0.00825132       0.55967061 </v>
   <v>      -0.00549292      -0.00094106       0.54954702 </v>
   <v>       0.03985165       0.00415955       0.94572567 </v>
   <v>      -0.03969873      -0.01408465       0.93469048 </v>
   <v>      -0.01189897       0.02921957       0.71153810 </v>
   <v>       0.01169949       0.03378425       0.68807155 </v>
   <v>      -0.06126142      -0.15538936       0.93890489 </v>
   <v>      -0.16638488       0.06768956       0.96471422 </v>
   <v>      -0.01025848      -0.00219982       0.55103034 </v>
   <v>       0.01735332      -0.00221025       0.55500215 </v>
   <v>      -0.04358535      -0.06209120       0.93940192 </v>
   <v>       0.01335125      -0.00493366       0.94952081 </v>
   <v>      -0.00028156      -0.01612000       0.65254265 </v>
   <v>       0.01110277      -0.02664407       0.69452244 </v>
   <v>       0.30427279       0.35169563       0.98613600 </v>
   <v>       0.14315757      -0.19799191       0.79097316 </v>
   <v>       0.00504620      -0.00413493       0.56063219 </v>
   <v>       0.00862504       0.00467727       0.56477150 </v>
   <v>       0.07590014      -0.03757836       0.96718824 </v>
   <v>      -0.03208072       0.10164899       1.03407619 </v>
   <v>       0.02478958       0.03222582       0.66350381 </v>
   <v>      -0.02489450      -0.05027362       0.70614795 </v>
   <v>      -1.07750521      -0.24503193       0.35123444 </v>
   <v>      -0.32610747       0.84186030       0.69262594 </v>
   <v>      -0.00067951       0.00684675       0.55152702 </v>
   <v>       0.00060625       0.00271800       0.55451695 </v>
   <v>      -0.14863763      -0.02691697       0.98267970 </v>
   <v>      -0.06163192      -0.01315835       0.49421368 </v>
   <v>      -0.02674555       0.01715253       0.66882069 </v>
   <v>       0.00846213      -0.03641884       0.72035926 </v>
   <v>       0.57818197      -0.28899246       0.66168021 </v>
   <v>       0.04075410       0.03218580       1.02787720 </v>
   <v>      -0.00219160       0.00183883       0.54400616 </v>
   <v>      -0.00655492      -0.00544424       0.56077679 </v>
   <v>       0.07512442      -0.03252387       0.94230265 </v>
   <v>       0.09820198       0.04107915       0.93549543 </v>
   <v>       0.05614332       0.08849095       0.00507596 </v>
  </varray>
  <varray name="stress" >
   <v>      11.45535693       0.21996166       0.32125969 </v>
   <v>       0.21996188      11.51280572       0.37938336 </v>
   <v>       0.32125960       0.37938355      18.94926247 </v>
  </varray>
  <energy>
   <i name="e_fr_energy">   -684.84598277 </i>
   <i name="e_wo_entrp">   -684.45907582 </i>
   <i name="e_0_energy">   -684.65252930 </i>
  </energy>
  <time name="totalsc"> 1280.56  328.95</time>
 </calculation>
 <calculation>
  <scstep>
   <time name="dav">   50.55    7.24</time>
   <time name="total">   62.73    9.39</time>
   <energy>
    <i name="alphaZ">    340.57291683 </i>
    <i name="ewald">  27132.91677838 </i>
    <i name="hartreedc"> -41245.60583512 </i>
    <i name="XCdc">    354.67511261 </i>
    <i name="pawpsdc">   5711.16240475 </i>
    <i name="pawaedc">  -4933.21740757 </i>
    <i name="eentropy">     -0.38692789 </i>
    <i name="bandstr">  -1489.51233389 </i>
    <i name="atom">  13444.54662946 </i>
    <i name="e_fr_energy">   -684.84866244 </i>
    <i name="e_wo_entrp">   -684.46173455 </i>
    <i name="e_0_energy">   -684.65519850 </i>
   </energy>
  </scstep>
  <scstep>
   <time name="diag">    3.43    0.81</time>
   <time name="diis">    7.20    3.22</time>
   <time name="orth">    0.12    0.06</time>
   <time name="total">   22.19    6.25</time>
   <energy>
    <i name="e_fr_energy">   -684.85170936 </i>
    <i name="e_wo_entrp">   -684.46481759 </i>
    <i name="e_0_energy">   -684.65826347 </i>
   </energy>
  </scstep>
  <scstep>
   <time name="diag">    3.45    0.80</time>
   <time name="diis">    7.96    3.61</time>
   <time name="orth">    0.12    0.06</time>
   <time name="total">   23.00    6.64</time>
   <energy>
    <i name="e_fr_energy">   -684.85079843 </i>
    <i name="e_wo_entrp">   -684.46357549 </i>
    <i name="e_0_energy">   -684.65718696 </i>
   </energy>
  </scstep>
  <scstep>
   <time name="diag">    3.39    0.81</time>
   <time name="diis">    8.29    3.77</time>
   <time name="orth">    0.12    0.06</time>
   <time name="total">   23.23    6.80</time>
   <energy>
    <i name="e_fr_energy">   -684.85080970 </i>
    <i name="e_wo_entrp">   -684.46403610 </i>
    <i name="e_0_energy">   -684.65742290 </i>
   </energy>
  </scstep>
  <scstep>
   <time name="diag">    3.45    0.81</time>
   <time name="diis">    7.57    3.40</time>
   <time name="orth">    0.12    0.06</time>
   <time name="total">   22.55    6.43</time>
   <energy>
    <i name="e_fr_energy">   -684.85055279 </i>
    <i name="e_wo_entrp">   -684.46363751 </i>
    <i name="e_0_energy">   -684.65709515 </i>
   </energy>
  </scstep>
  <scstep>
   <time name="diag">    3.48    0.81</time>
   <time name="diis">    7.31    3.28</time>
   <time name="orth">    0.12    0.06</time>
   <time name="total">   22.33    6.31</time>
   <energy>
    <i name="e_fr_energy">   -684.85046796 </i>
    <i name="e_wo_entrp">   -684.46341947 </i>
    <i name="e_0_energy">   -684.65694372 </i>
   </energy>
  </scstep>
  <scstep>
   <time name="diag">    3.45    0.81</time>
   <time name="diis">    7.11    3.21</time>
   <time name="orth">    0.12    0.06</time>
   <time name="total">   22.09    6.24</time>
   <energy>
    <i name="e_fr_energy">   -684.85053083 </i>
    <i name="e_wo_entrp">   -684.46343676 </i>
    <i name="e_0_energy">   -684.65698379 </i>
   </energy>
  </scstep>
  <scstep>
   <time name="diag">    3.40    0.81</time>
   <time name="diis">    7.21    3.22</time>
   <time name="orth">    0.12    0.06</time>
   <time name="total">   22.27    6.26</time>
   <energy>
    <i name="e_fr_energy">   -684.85040527 </i>
    <i name="e_wo_entrp">   -684.46341248 </i>
    <i name="e_0_energy">   -684.65690887 </i>
   </energy>
  </scstep>
  <scstep>
   <time name="diag">    3.40    0.81</time>
   <time name="diis">    8.24    3.73</time>
   <time name="orth">    0.12    0.06</time>
   <time name="total">   23.30    6.79</time>
   <energy>
    <i name="e_fr_energy">   -684.85040649 </i>
    <i name="e_wo_entrp">   -684.46338271 </i>
    <i name="e_0_energy">   -684.65689460 </i>
   </energy>
  </scstep>
  <scstep>
   <time name="diag">    3.43    0.80</time>
   <time name="diis">    7.04    3.12</time>
   <time name="orth">    0.12    0.06</time>
   <time name="total">   22.09    6.15</time>
   <energy>
    <i name="e_fr_energy">   -684.85040424 </i>
    <i name="e_wo_entrp">   -684.46340160 </i>
    <i name="e_0_energy">   -684.65690292 </i>
   </energy>
  </scstep>
  <scstep>
   <time name="diag">    3.49    0.81</time>
   <time name="diis">    5.62    2.43</time>
   <time name="orth">    0.12    0.06</time>
   <time name="total">   18.69    4.88</time>
   <energy>
    <i name="alphaZ">    340.57291683 </i>
    <i name="ewald">  27132.91677838 </i>
    <i name="hartreedc"> -41245.63143883 </i>
    <i name="XCdc">    354.67581474 </i>
    <i name="pawpsdc">   5711.02169784 </i>
    <i name="pawaedc">  -4933.07172696 </i>
    <i name="eentropy">     -0.38700740 </i>
    <i name="bandstr">  -1489.49406817 </i>
    <i name="atom">  13444.54662946 </i>
    <i name="e_fr_energy">   -684.85040411 </i>
    <i name="e_wo_entrp">   -684.46339672 </i>
    <i name="e_0_energy">   -684.65690041 </i>
   </energy>
  </scstep>
  <structure>
   <crystal>
    <varray name="basis" >
     <v>       9.28426200       0.00000000       0.00000000 </v>
     <v>       0.00000000      10.72054200       0.00000000 </v>
     <v>       0.00000000       0.00000000      18.22724200 </v>
    </varray>
    <i name="volume">   1814.19969640 </i>
    <varray name="rec_basis" >
     <v>       0.10770915       0.00000000       0.00000000 </v>
     <v>       0.00000000       0.09327887       0.00000000 </v>
     <v>       0.00000000       0.00000000       0.05486294 </v>
    </varray>
   </crystal>
   <varray name="positions" >
    <v>       0.00000000       0.00000000       0.31213000 </v>
    <v>       0.16666700       0.25000000       0.31213000 </v>
    <v>       0.99993042       0.33322429       0.43837671 </v>
    <v>       0.16659380       0.08334537       0.43872409 </v>
    <v>       0.00000000       0.16666600       0.03482200 </v>
    <v>       0.16666700       0.41666600       0.03482200 </v>
    <v>       0.00000000       0.33333300       0.17351800 </v>
    <v>       0.16666700       0.08333300       0.17351800 </v>
    <v>       0.33333300       0.00000000       0.31213000 </v>
    <v>       0.50000000       0.25000000       0.31213000 </v>
    <v>       0.33365022       0.33356371       0.43963065 </v>
    <v>       0.50010266       0.08341822       0.43808474 </v>
    <v>       0.33333300       0.16666600       0.03482200 </v>
    <v>       0.50000000       0.41666600       0.03482200 </v>
    <v>       0.33333300       0.33333400       0.17351800 </v>
    <v>       0.50000000       0.08333300       0.17351800 </v>
    <v>       0.66666700       0.00000000       0.31213000 </v>
    <v>       0.83333300       0.25000000       0.31213000 </v>
    <v>       0.66653609       0.33350338       0.43917064 </v>
    <v>       0.83333719       0.08335846       0.43818323 </v>
    <v>       0.66666700       0.16666600       0.03482200 </v>
    <v>       0.83333300       0.41666600       0.03482200 </v>
    <v>       0.66666700       0.33333300       0.17351800 </v>
    <v>       0.83333300       0.08333300       0.17351800 </v>
    <v>       0.00000000       0.50000000       0.31213000 </v>
    <v>       0.16666700       0.75000000       0.31213000 </v>
[...]
       <r>    7.6605    0.0000 </r>
       <r>    7.7082    0.0000 </r>
       <r>    7.7331    0.0000 </r>
       <r>    7.7914    0.0000 </r>
      </set>
      <set comment="kpoint 7">
       <r>  -27.8556    1.0000 </r>
       <r>  -21.9804    1.0000 </r>
       <r>  -12.5307    1.0000 </r>
       <r>  -12.5217    1.0000 </r>
       <r>  -12.1858    1.0000 </r>
       <r>  -12.1768    1.0000 </r>
       <r>  -11.7227    1.0000 </r>
       <r>  -11.6892    1.0000 </r>
       <r>  -11.4157    1.0000 </r>
       <r>  -11.4035    1.0000 </r>
       <r>  -11.3938    1.0000 </r>
       <r>  -11.3698    1.0000 </r>
       <r>  -11.3184    1.0000 </r>
       <r>  -10.8797    1.0000 </r>
       <r>  -10.8715    1.0000 </r>
       <r>  -10.6800    1.0000 </r>
       <r>  -10.6372    1.0000 </r>
       <r>  -10.3625    1.0000 </r>
       <r>  -10.3181    1.0000 </r>
       <r>  -10.1303    1.0000 </r>
       <r>  -10.0905    1.0000 </r>
       <r>  -10.0382    1.0000 </r>
       <r>  -10.0345    1.0000 </r>
       <r>  -10.0335    1.0000 </r>
       <r>  -10.0306    1.0000 </r>
       <r>   -9.8677    1.0000 </r>
       <r>   -9.8668    1.0000 </r>
       <r>   -9.4033    1.0000 </r>
       <r>   -9.3703    1.0000 </r>
       <r>   -9.3568    1.0000 </r>
       <r>   -9.3417    1.0000 </r>
       <r>   -9.3127    1.0000 </r>
       <r>   -9.2853    1.0000 </r>
       <r>   -9.2643    1.0000 </r>
       <r>   -9.1937    1.0000 </r>
       <r>   -9.1773    1.0000 </r>
       <r>   -9.1159    1.0000 </r>
       <r>   -8.9169    1.0000 </r>
       <r>   -8.8104    1.0000 </r>
       <r>   -8.6756    1.0000 </r>
       <r>   -8.6619    1.0000 </r>
       <r>   -8.6571    1.0000 </r>
       <r>   -8.6468    1.0000 </r>
       <r>   -8.6382    1.0000 </r>
       <r>   -8.6093    1.0000 </r>
       <r>   -8.0075    1.0000 </r>
       <r>   -7.7663    1.0000 </r>
       <r>   -7.6331    1.0000 </r>
       <r>   -7.4818    1.0000 </r>
       <r>   -7.4713    1.0000 </r>
       <r>   -7.4141    1.0000 </r>
       <r>   -7.4014    1.0000 </r>
       <r>   -7.3021    1.0000 </r>
       <r>   -5.9249    1.0000 </r>
       <r>   -5.9196    1.0000 </r>
       <r>   -5.4948    1.0000 </r>
       <r>   -5.4804    1.0000 </r>
       <r>   -5.4794    1.0000 </r>
       <r>   -5.4776    1.0000 </r>
       <r>   -5.4015    1.0000 </r>
       <r>   -5.3825    1.0000 </r>
       <r>   -5.1883    1.0000 </r>
       <r>   -5.0786    1.0000 </r>
       <r>   -5.0713    1.0000 </r>
       <r>   -5.0619    1.0000 </r>
       <r>   -5.0523    1.0000 </r>
       <r>   -5.0403    1.0000 </r>
       <r>   -5.0014    1.0000 </r>
       <r>   -4.9854    1.0000 </r>
       <r>   -4.8986    1.0000 </r>
       <r>   -4.8314    1.0000 </r>
       <r>   -4.8048    1.0000 </r>
       <r>   -4.7956    1.0000 </r>
       <r>   -4.6320    1.0000 </r>
       <r>   -4.5969    1.0000 </r>
       <r>   -4.5828    1.0000 </r>
       <r>   -4.5408    1.0000 </r>
       <r>   -4.5135    1.0000 </r>
       <r>   -4.3214    1.0000 </r>
       <r>   -4.3073    1.0000 </r>
       <r>   -4.0442    1.0000 </r>
       <r>   -3.9146    1.0000 </r>
       <r>   -3.6770    1.0000 </r>
       <r>   -3.6037    1.0000 </r>
       <r>   -3.5555    1.0000 </r>
       <r>   -3.5453    1.0000 </r>
       <r>   -3.4081    1.0000 </r>
       <r>   -3.3438    1.0000 </r>
       <r>   -2.9203    1.0000 </r>
       <r>   -2.8772    1.0000 </r>
       <r>   -2.8687    1.0000 </r>
       <r>   -2.8645    1.0000 </r>
       <r>   -2.7528    1.0000 </r>
       <r>   -2.7460    1.0000 </r>
       <r>   -2.6562    1.0000 </r>
       <r>   -2.5648    1.0000 </r>
       <r>   -2.4457    1.0000 </r>
       <r>   -2.4428    1.0000 </r>
       <r>   -2.4166    1.0000 </r>
       <r>   -2.4113    1.0000 </r>
       <r>   -2.3330    1.0000 </r>
       <r>   -2.1791    1.0000 </r>
       <r>   -2.0326    1.0000 </r>
       <r>   -2.0290    1.0000 </r>
       <r>   -2.0232    1.0000 </r>
       <r>   -2.0093    1.0000 </r>
       <r>   -1.9916    1.0000 </r>
       <r>   -1.9632    1.0000 </r>
       <r>   -1.7918    1.0000 </r>
       <r>   -1.7834    1.0000 </r>
       <r>   -1.7792    1.0000 </r>
       <r>   -1.7739    1.0000 </r>
       <r>   -1.7539    1.0000 </r>
       <r>   -1.7444    1.0000 </r>
       <r>   -1.6773    1.0000 </r>
       <r>   -1.6662    1.0000 </r>
       <r>   -1.5143    1.0000 </r>
       <r>   -1.5033    1.0000 </r>
       <r>   -1.4867    1.0000 </r>
       <r>   -1.4822    1.0000 </r>
       <r>   -1.2779    1.0000 </r>
       <r>   -1.2766    1.0000 </r>
       <r>   -1.2650    1.0000 </r>
       <r>   -1.2582    1.0000 </r>
       <r>   -1.2471    1.0000 </r>
       <r>   -1.2199    1.0000 </r>
       <r>   -1.1964    1.0000 </r>
       <r>   -1.1865    1.0000 </r>
       <r>   -1.1280    1.0000 </r>
       <r>   -1.1104    1.0000 </r>
       <r>   -1.0597    1.0000 </r>
       <r>   -1.0098    1.0000 </r>
       <r>   -0.9324    1.0000 </r>
       <r>   -0.9105    1.0000 </r>
       <r>   -0.7386    1.0000 </r>
       <r>   -0.7353    1.0000 </r>
       <r>   -0.7300    1.0000 </r>
       <r>   -0.7201    1.0000 </r>
       <r>   -0.7149    1.0000 </r>
       <r>   -0.7133    1.0000 </r>
       <r>   -0.6737    1.0000 </r>
       <r>   -0.6518    1.0000 </r>
       <r>   -0.6279    1.0000 </r>
       <r>   -0.6231    1.0000 </r>
       <r>   -0.3841    1.0000 </r>
       <r>   -0.3588    1.0000 </r>
       <r>   -0.2758    1.0000 </r>
       <r>   -0.2525    1.0000 </r>
       <r>   -0.1742    1.0000 </r>
       <r>   -0.1650    1.0000 </r>
       <r>   -0.1172    1.0000 </r>
       <r>   -0.1079    1.0000 </r>
       <r>   -0.0341    1.0000 </r>
       <r>   -0.0107    1.0000 </r>
       <r>    0.0041    1.0000 </r>
       <r>    0.0380    1.0000 </r>
       <r>    0.1085    1.0000 </r>
       <r>    0.1418    1.0000 </r>
       <r>    0.2926    1.0000 </r>
       <r>    0.2944    1.0000 </r>
       <r>    0.3012    1.0000 </r>
       <r>    0.3208    1.0000 </r>
       <r>    0.3294    1.0000 </r>
       <r>    0.3565    1.0000 </r>
       <r>    0.4523    1.0000 </r>
       <r>    0.4588    1.0000 </r>
       <r>    0.5910    1.0000 </r>
       <r>    0.5946    1.0000 </r>
       <r>    0.6031    1.0000 </r>
       <r>    0.6060    1.0000 </r>
       <r>    0.7010    1.0000 </r>
       <r>    0.7082    1.0000 </r>
       <r>    0.7484    1.0000 </r>
       <r>    0.7570    1.0000 </r>
       <r>    0.8460    1.0000 </r>
       <r>    0.8545    1.0000 </r>
       <r>    0.8733    1.0000 </r>
       <r>    0.8818    1.0000 </r>
       <r>    0.8946    1.0000 </r>
       <r>    0.9214    1.0000 </r>
       <r>    1.0417    1.0000 </r>
       <r>    1.0570    1.0000 </r>
       <r>    1.3464    1.0000 </r>
       <r>    1.3659    1.0000 </r>
       <r>    1.7499    1.0000 </r>
       <r>    1.7628    1.0000 </r>
       <r>    2.1970    1.0000 </r>
       <r>    2.2325    1.0000 </r>
       <r>    2.6072    1.0000 </r>
       <r>    2.6280    1.0000 </r>
       <r>    2.7544    0.9993 </r>
       <r>    2.8031    0.9937 </r>
       <r>    2.8158    0.9897 </r>
       <r>    2.8188    0.9885 </r>
       <r>    2.8199    0.9880 </r>
       <r>    2.8813    0.9175 </r>
       <r>    2.9246    0.7810 </r>
       <r>    2.9514    0.6544 </r>
       <r>    2.9647    0.5828 </r>
       <r>    2.9737    0.5325 </r>
       <r>    2.9792    0.5017 </r>
       <r>    3.0251    0.2592 </r>
       <r>    3.0527    0.1502 </r>
       <r>    3.0654    0.1123 </r>
       <r>    3.0677    0.1062 </r>
       <r>    3.0813    0.0750 </r>
       <r>    3.0889    0.0609 </r>
       <r>    3.1546    0.0066 </r>
       <r>    3.1780    0.0025 </r>
       <r>    3.1961    0.0011 </r>
       <r>    3.2065    0.0007 </r>
       <r>    5.0969    0.0000 </r>
       <r>    5.1549    0.0000 </r>
       <r>    5.6748    0.0000 </r>
       <r>    5.9235    0.0000 </r>
       <r>    5.9264    0.0000 </r>
       <r>    5.9316    0.0000 </r>
       <r>    6.0280    0.0000 </r>
       <r>    6.2410    0.0000 </r>
       <r>    6.3902    0.0000 </r>
       <r>    6.4062    0.0000 </r>
       <r>    6.4810    0.0000 </r>
       <r>    6.5625    0.0000 </r>
       <r>    6.8310    0.0000 </r>
       <r>    6.8548    0.0000 </r>
       <r>    6.9070    0.0000 </r>
       <r>    6.9085    0.0000 </r>
       <r>    7.0233    0.0000 </r>
       <r>    7.0296    0.0000 </r>
       <r>    7.1256    0.0000 </r>
       <r>    7.1334    0.0000 </r>
       <r>    7.1357    0.0000 </r>
       <r>    7.1398    0.0000 </r>
       <r>    7.1699    0.0000 </r>
       <r>    7.2679    0.0000 </r>
       <r>    7.3521    0.0000 </r>
       <r>    7.3656    0.0000 </r>
       <r>    7.4273    0.0000 </r>
       <r>    7.4290    0.0000 </r>
       <r>    7.5627    0.0000 </r>
       <r>    7.5715    0.0000 </r>
       <r>    7.5858    0.0000 </r>
       <r>    7.5956    0.0000 </r>
       <r>    7.6130    0.0000 </r>
       <r>    7.6261    0.0000 </r>
       <r>    7.6318    0.0000 </r>
       <r>    7.6567    0.0000 </r>
       <r>    7.6809    0.0000 </r>
       <r>    7.7027    0.0000 </r>
       <r>    7.7482    0.0000 </r>
      </set>
     </set>
    </set>
   </array>
  </eigenvalues>
  <separator name="orbital magnetization" >
   <v name="MAGDIPOLOUT">      0.00000000      0.00000000      0.00000000</v>
  </separator>
 </calculation>
 <structure name="finalpos" >
  <crystal>
   <varray name="basis" >
    <v>       9.28426200       0.00000000       0.00000000 </v>
    <v>       0.00000000      10.72054200       0.00000000 </v>
    <v>       0.00000000       0.00000000      18.22724200 </v>
   </varray>
   <i name="volume">   1814.19969640 </i>
   <varray name="rec_basis" >
    <v>       0.10770915       0.00000000       0.00000000 </v>
    <v>       0.00000000       0.09327887       0.00000000 </v>
    <v>       0.00000000       0.00000000       0.05486294 </v>
   </varray>
  </crystal>
  <varray name="positions" >
   <v>       0.00000000       0.00000000       0.31213000 </v>
   <v>       0.16666700       0.25000000       0.31213000 </v>
   <v>       0.99992673       0.33323298       0.43884839 </v>
   <v>       0.16665035       0.08325975       0.43848665 </v>
   <v>       0.00000000       0.16666600       0.03482200 </v>
   <v>       0.16666700       0.41666600       0.03482200 </v>
   <v>       0.00000000       0.33333300       0.17351800 </v>
   <v>       0.16666700       0.08333300       0.17351800 </v>
   <v>       0.33333300       0.00000000       0.31213000 </v>
   <v>       0.50000000       0.25000000       0.31213000 </v>
   <v>       0.33362440       0.33370797       0.44051825 </v>
   <v>       0.50008762       0.08334724       0.43823129 </v>
   <v>       0.33333300       0.16666600       0.03482200 </v>
   <v>       0.50000000       0.41666600       0.03482200 </v>
   <v>       0.33333300       0.33333400       0.17351800 </v>
   <v>       0.50000000       0.08333300       0.17351800 </v>
   <v>       0.66666700       0.00000000       0.31213000 </v>
   <v>       0.83333300       0.25000000       0.31213000 </v>
   <v>       0.66648616       0.33361019       0.43884707 </v>
   <v>       0.83326405       0.08329468       0.43863455 </v>
   <v>       0.66666700       0.16666600       0.03482200 </v>
   <v>       0.83333300       0.41666600       0.03482200 </v>
   <v>       0.66666700       0.33333300       0.17351800 </v>
   <v>       0.83333300       0.08333300       0.17351800 </v>
   <v>       0.00000000       0.50000000       0.31213000 </v>
   <v>       0.16666700       0.75000000       0.31213000 </v>
   <v>       0.99992245       0.83343727       0.43855608 </v>
   <v>       0.16709934       0.58341887       0.44352706 </v>
   <v>       0.00000000       0.66666600       0.03482200 </v>
   <v>       0.16666700       0.91666600       0.03482200 </v>
   <v>       0.00000000       0.83333300       0.17351800 </v>
   <v>       0.16666700       0.58333300       0.17351800 </v>
   <v>       0.33333300       0.50000000       0.31213000 </v>
   <v>       0.50000000       0.75000000       0.31213000 </v>
   <v>       0.33358559       0.83300480       0.44012312 </v>
   <v>       0.50008656       0.58332140       0.44887516 </v>
   <v>       0.33333300       0.66666600       0.03482200 </v>
   <v>       0.50000000       0.91666600       0.03482200 </v>
   <v>       0.33333300       0.83333300       0.17351800 </v>
   <v>       0.50000000       0.58333300       0.17351800 </v>
   <v>       0.66666700       0.50000000       0.31213000 </v>
   <v>       0.83333300       0.75000000       0.31213000 </v>
   <v>       0.66648321       0.83302598       0.43891674 </v>
   <v>       0.83289244       0.58336634       0.43918461 </v>
   <v>       0.66666700       0.66666600       0.03482200 </v>
   <v>       0.83333300       0.91666600       0.03482200 </v>
   <v>       0.66666700       0.83333300       0.17351800 </v>
   <v>       0.83333300       0.58333300       0.17351800 </v>
   <v>       0.49776179       0.58355509       0.53064896 </v>
   <v>       0.00000000       0.00000000       0.00000000 </v>
   <v>       0.16666700       0.25000000       0.00000000 </v>
   <v>       0.00000000       0.00000000       0.41654900 </v>
   <v>       0.16666700       0.25000000       0.41654900 </v>
   <v>       0.00000000       0.16666600       0.13894900 </v>
   <v>       0.16666700       0.41666600       0.13894900 </v>
   <v>       0.00000000       0.33333300       0.27764900 </v>
   <v>       0.16666700       0.08333300       0.27764900 </v>
   <v>       0.33333300       0.00000000       0.00000000 </v>
   <v>       0.50000000       0.25000000       0.00000000 </v>
   <v>       0.33333300       0.00000000       0.41654900 </v>
   <v>       0.50000000       0.25000000       0.41654900 </v>
   <v>       0.33333300       0.16666600       0.13894900 </v>
   <v>       0.50000000       0.41666600       0.13894900 </v>
   <v>       0.33333300       0.33333400       0.27764900 </v>
   <v>       0.50000000       0.08333300       0.27764900 </v>
   <v>       0.66666700       0.00000000       0.00000000 </v>
   <v>       0.83333300       0.25000000       0.00000000 </v>
   <v>       0.66666700       0.00000000       0.41654900 </v>
   <v>       0.83333300       0.25000000       0.41654900 </v>
   <v>       0.66666700       0.16666600       0.13894900 </v>
   <v>       0.83333300       0.41666600       0.13894900 </v>
   <v>       0.66666700       0.33333300       0.27764900 </v>
   <v>       0.83333300       0.08333300       0.27764900 </v>
   <v>       0.00000000       0.50000000       0.00000000 </v>
   <v>       0.16666700       0.75000000       0.00000000 </v>
   <v>       0.00000000       0.50000000       0.41654900 </v>
   <v>       0.16666700       0.75000000       0.41654900 </v>
   <v>       0.00000000       0.66666600       0.13894900 </v>
   <v>       0.16666700       0.91666600       0.13894900 </v>
   <v>       0.00000000       0.83333300       0.27764900 </v>
   <v>       0.16666700       0.58333300       0.27764900 </v>
   <v>       0.33333300       0.50000000       0.00000000 </v>
   <v>       0.50000000       0.75000000       0.00000000 </v>
   <v>       0.33333300       0.50000000       0.41654900 </v>
   <v>       0.50000000       0.75000000       0.41654900 </v>
   <v>       0.33333300       0.66666600       0.13894900 </v>
   <v>       0.50000000       0.91666600       0.13894900 </v>
   <v>       0.33333300       0.83333300       0.27764900 </v>
   <v>       0.50000000       0.58333300       0.27764900 </v>
   <v>       0.66666700       0.50000000       0.00000000 </v>
   <v>       0.83333300       0.75000000       0.00000000 </v>
   <v>       0.66666700       0.50000000       0.41654900 </v>
   <v>       0.83333300       0.75000000       0.41654900 </v>
   <v>       0.66666700       0.66666600       0.13894900 </v>
   <v>       0.83333300       0.91666600       0.13894900 </v>
   <v>       0.66666700       0.83333300       0.27764900 </v>
   <v>       0.83333300       0.58333300       0.27764900 </v>
   <v>       0.24069789       0.57641217       0.59200995 </v>
  </varray>
  <varray name="selective"  type="logical" >
   <v type="logical" >  F  F  F </v>
   <v type="logical" >  F  F  F </v>
   <v type="logical" >  T  T  T </v>
   <v type="logical" >  T  T  T </v>
   <v type="logical" >  F  F  F </v>
   <v type="logical" >  F  F  F </v>
   <v type="logical" >  F  F  F </v>
   <v type="logical" >  F  F  F </v>
   <v type="logical" >  F  F  F </v>
   <v type="logical" >  F  F  F </v>
   <v type="logical" >  T  T  T </v>
   <v type="logical" >  T  T  T </v>
   <v type="logical" >  F  F  F </v>
   <v type="logical" >  F  F  F </v>
   <v type="logical" >  F  F  F </v>
   <v type="logical" >  F  F  F </v>
   <v type="logical" >  F  F  F </v>
   <v type="logical" >  F  F  F </v>
   <v type="logical" >  T  T  T </v>
   <v type="logical" >  T  T  T </v>
   <v type="logical" >  F  F  F </v>
   <v type="logical" >  F  F  F </v>
   <v type="logical" >  F  F  F </v>
   <v type="logical" >  F  F  F </v>
   <v type="logical" >  F  F  F </v>
   <v type="logical" >  F  F  F </v>
   <v type="logical" >  T  T  T </v>
   <v type="logical" >  T  T  T </v>
   <v type="logical" >  F  F  F </v>
   <v type="logical" >  F  F  F </v>
   <v type="logical" >  F  F  F </v>
   <v type="logical" >  F  F  F </v>
   <v type="logical" >  F  F  F </v>
   <v type="logical" >  F  F  F </v>
   <v type="logical" >  T  T  T </v>
   <v type="logical" >  T  T  T </v>
   <v type="logical" >  F  F  F </v>
   <v type="logical" >  F  F  F </v>
   <v type="logical" >  F  F  F </v>
   <v type="logical" >  F  F  F </v>
   <v type="logical" >  F  F  F </v>
   <v type="logical" >  F  F  F </v>
   <v type="logical" >  T  T  T </v>
   <v type="logical" >  T  T  T </v>
   <v type="logical" >  F  F  F </v>
   <v type="logical" >  F  F  F </v>
   <v type="logical" >  F  F  F </v>
   <v type="logical" >  F  F  F </v>
   <v type="logical" >  T  T  T </v>
   <v type="logical" >  F  F  F </v>
   <v type="logical" >  F  F  F </v>
   <v type="logical" >  F  F  F </v>
   <v type="logical" >  F  F  F </v>
   <v type="logical" >  F  F  F </v>
   <v type="logical" >  F  F  F </v>
   <v type="logical" >  F  F  F </v>
   <v type="logical" >  F  F  F </v>
   <v type="logical" >  F  F  F </v>
   <v type="logical" >  F  F  F </v>
   <v type="logical" >  F  F  F </v>
   <v type="logical" >  F  F  F </v>
   <v type="logical" >  F  F  F </v>
   <v type="logical" >  F  F  F </v>
   <v type="logical" >  F  F  F </v>
   <v type="logical" >  F  F  F </v>
   <v type="logical" >  F  F  F </v>
   <v type="logical" >  F  F  F </v>
   <v type="logical" >  F  F  F </v>
   <v type="logical" >  F  F  F </v>
   <v type="logical" >  F  F  F </v>
   <v type="logical" >  F  F  F </v>
   <v type="logical" >  F  F  F </v>
   <v type="logical" >  F  F  F </v>
   <v type="logical" >  F  F  F </v>
   <v type="logical" >  F  F  F </v>
   <v type="logical" >  F  F  F </v>
   <v type="logical" >  F  F  F </v>
   <v type="logical" >  F  F  F </v>
   <v type="logical" >  F  F  F </v>
   <v type="logical" >  F  F  F </v>
   <v type="logical" >  F  F  F </v>
   <v type="logical" >  F  F  F </v>
   <v type="logical" >  F  F  F </v>
   <v type="logical" >  F  F  F </v>
   <v type="logical" >  F  F  F </v>
   <v type="logical" >  F  F  F </v>
   <v type="logical" >  F  F  F </v>
   <v type="logical" >  F  F  F </v>
   <v type="logical" >  F  F  F </v>
   <v type="logical" >  F  F  F </v>
   <v type="logical" >  F  F  F </v>
   <v type="logical" >  F  F  F </v>
   <v type="logical" >  F  F  F </v>
   <v type="logical" >  F  F  F </v>
   <v type="logical" >  F  F  F </v>
   <v type="logical" >  F  F  F </v>
   <v type="logical" >  F  F  F </v>
   <v type="logical" >  T  T  T </v>
  </varray>
  <nose>
   <v>      -3.00000000       0.00000000       0.00010000       0.00010000 </v>
  </nose>
 </structure>
</modeling>
